 *******************************************************************************
 **                                                                           **
 **                              MOPAC v22.1.0                                **
 **                                                                           **
 *******************************************************************************
 **          Digital Object Identifier (DOI): 10.5281/zenodo.6511958          **
 **    Visit the DOI location for information on how to cite this program.    **
 *******************************************************************************

                              PM7 CALCULATION RESULTS

 *******************************************************************************
 *  CALCULATION DONE:                                Thu Jan  4 06:39:44 2024  *
 *  PM7        - The PM7 Hamiltonian to be used
 *  SINGLET    - SPIN STATE DEFINED AS A SINGLET
 *
 *
 *
 *                 CHARGE ON SYSTEM = 0
 *
 *
 *
 *  PRECISE    - TIGHTER CRITERIA TO BE USED
 *  T=         - A TIME OF 172800.0 SECONDS REQUESTED
 *  DUMP=N     - RESTART FILE WRITTEN EVERY 7200.0 SECONDS REQUESTED
 *  LARGE      - EXPANDED OUTPUT TO BE PRINTED
 *******************************************************************************
 LARGE CHARGE=0 SINGLET PM7 PRECISE
 HCl

   ATOM   CHEMICAL          X               Y               Z
  NUMBER   SYMBOL      (ANGSTROMS)     (ANGSTROMS)     (ANGSTROMS)
 
     1       H         -7.21904000  *   0.62894000  *   0.00000000  *
     2      Cl         -6.09911000  *   0.61555000  *   0.00000000  *
 


          CARTESIAN COORDINATES 

    NO.       ATOM           X           Y           Z

     1         H         -7.2190      0.6289      0.0000
     2        Cl         -6.0991      0.6156      0.0000

 General Reference for PM7:
 "Optimization of Parameters for Semiempirical Methods VI: More Modifications to the 
 NDDO Approximations and Re-optimization of Parameters", J. J. P. Stewart, J. Mol. Mod., 1:32, 19 (2013)
 https://link.springer.com/article/10.1007/s00894-012-1667-x

           Empirical Formula: H Cl  =     2 atoms



      MOLECULAR POINT GROUP   :   C*v 


 SINGLET STATE CALCULATION


      RHF CALCULATION, NO. OF DOUBLY OCCUPIED LEVELS = 4


          Geometry optimization using EF

          DIAGONAL MATRIX USED AS START HESSIAN

 CYCLE:     1 TIME:   0.000 TIME LEFT:  2.00D  GRAD.:   211.915 HEAT: -10.17879
 CYCLE:     2 TIME:   0.000 TIME LEFT:  2.00D  GRAD.:    98.860 HEAT: -15.49621
 CYCLE:     3 TIME:   0.016 TIME LEFT:  2.00D  GRAD.:    36.810 HEAT: -19.95088
 CYCLE:     4 TIME:   0.000 TIME LEFT:  2.00D  GRAD.:    13.809 HEAT: -20.42138
 CYCLE:     5 TIME:   0.000 TIME LEFT:  2.00D  GRAD.:     1.164 HEAT: -20.48568
 CYCLE:     6 TIME:   0.000 TIME LEFT:  2.00D  GRAD.:     0.033 HEAT: -20.48616

     GRADIENT =  0.03336 IS LESS THAN CUTOFF =  0.05000



 -------------------------------------------------------------------------------
 LARGE CHARGE=0 SINGLET PM7 PRECISE
 HCl



     GEOMETRY OPTIMISED USING EIGENVECTOR FOLLOWING (EF).     
     SCF FIELD WAS ACHIEVED                                   


                              PM7 CALCULATION
                                                       MOPAC v22.1.0 Windows
                                                       Thu Jan  4 06:39:44 2024




          FINAL HEAT OF FORMATION =        -20.48616 KCAL/MOL =     -85.71410 KJ/MOL


          COSMO AREA              =         54.50 SQUARE ANGSTROMS
          COSMO VOLUME            =         36.56 CUBIC ANGSTROMS

          GRADIENT NORM           =          0.03336          =       0.02359 PER ATOM
          IONIZATION POTENTIAL    =         11.726775 EV
          HOMO LUMO ENERGIES (EV) =        -11.727  2.069
          NO. OF FILLED LEVELS    =          4
          MOLECULAR WEIGHT        =         36.4609         POINT GROUP:  C*v 

          MOLECULAR DIMENSIONS (Angstroms)

            Atom       Atom       Distance
           Cl     2    H     1     1.27292
           Cl     2    H     1     0.00000
            H     1   Cl     2     0.00000


          SCF CALCULATIONS        =          7
 
          WALL-CLOCK TIME         =      0.047 SECONDS
          COMPUTATION TIME        =      0.047 SECONDS




   ATOM   CHEMICAL          X               Y               Z
  NUMBER   SYMBOL      (ANGSTROMS)     (ANGSTROMS)     (ANGSTROMS)
 
     1       H         -7.29548371  *   0.63042544  *  -0.00000000  *
     2      Cl         -6.02266629  *   0.61406456  *  -0.00000000  *

                             CARTESIAN COORDINATES

   1    H       -7.295483711     0.630425444    -0.000000000
   2   Cl       -6.022666289     0.614064555    -0.000000000


           Empirical Formula: H Cl  =     2 atoms



      MOLECULAR POINT GROUP   :   C*v 


                  EIGENVALUES  
 -26.38521 -15.37044 -11.72677 -11.72677   2.06915  69.42918  69.66993  69.66993
  70.52757  70.52757


              NET ATOMIC CHARGES AND DIPOLE CONTRIBUTIONS

  ATOM NO.   TYPE          CHARGE      No. of ELECS.   s-Pop       p-Pop       d-Pop       
    1          H           0.218879        0.7811     0.78112
    2         Cl          -0.218879        7.2189     1.97988     5.23794     0.00106
 DIPOLE           X         Y         Z       TOTAL
 POINT-CHG.    -1.338     0.017    -0.000     1.338
 HYBRID        -0.409     0.005     0.000     0.409
 SUM           -1.747     0.022     0.000     1.747


          ATOMIC ORBITAL ELECTRON POPULATIONS

     Atom    s        px        py        pz      x^2-y^2     xz        z^2       yz        xy
    1  H   0.78112
    2 Cl   1.97988   1.23817   1.99982   1.99994   0.00071   0.00006   0.00024   0.00000   0.00006
 *******************************************************************************
 **                                                                           **
 **                              MOPAC v22.1.0                                **
 **                                                                           **
 *******************************************************************************
 **          Digital Object Identifier (DOI): 10.5281/zenodo.6511958          **
 **    Visit the DOI location for information on how to cite this program.    **
 *******************************************************************************

                              PM7 CALCULATION RESULTS

 *******************************************************************************
 *  CALCULATION DONE:                                Thu Jan  4 06:39:44 2024  *
 *  PM7        - The PM7 Hamiltonian to be used
 *  SINGLET    - SPIN STATE DEFINED AS A SINGLET
 *
 *
 *
 *                 CHARGE ON SYSTEM = 0
 *
 *
 *
 *  OLDGEO     - PREVIOUS GEOMETRY TO BE USED
 *  PRECISE    - TIGHTER CRITERIA TO BE USED
 *  T=         - A TIME OF 172800.0 SECONDS REQUESTED
 *  DUMP=N     - RESTART FILE WRITTEN EVERY 7200.0 SECONDS REQUESTED
 *  THERMO     - THERMODYNAMIC QUANTITIES TO BE CALCULATED
 *******************************************************************************
OLDGEO CHARGE=0 SINGLET PRECISE PM7 THERMO
 HCl

   ATOM   CHEMICAL          X               Y               Z
  NUMBER   SYMBOL      (ANGSTROMS)     (ANGSTROMS)     (ANGSTROMS)
 
     1       H         -7.29548371  *   0.63042544  *  -0.00000000  *
     2      Cl         -6.02266629  *   0.61406456  *  -0.00000000  *
 


          CARTESIAN COORDINATES 

    NO.       ATOM           X           Y           Z

     1         H         -7.2955      0.6304     -0.0000
     2        Cl         -6.0227      0.6141     -0.0000

 General Reference for PM7:
 "Optimization of Parameters for Semiempirical Methods VI: More Modifications to the 
 NDDO Approximations and Re-optimization of Parameters", J. J. P. Stewart, J. Mol. Mod., 1:32, 19 (2013)
 https://link.springer.com/article/10.1007/s00894-012-1667-x

           Empirical Formula: H Cl  =     2 atoms



      MOLECULAR POINT GROUP   :   C*v 


 SINGLET STATE CALCULATION


      RHF CALCULATION, NO. OF DOUBLY OCCUPIED LEVELS = 4



          HEAT OF FORMATION =     -20.486161 KCALS/MOLE


          CARTESIAN COORDINATE DERIVATIVES

   NUMBER  ATOM         X            Y            Z

     1       H     -0.018150     0.000000     0.000000
     2      Cl      0.018149     0.000000     0.000000
 


          GRADIENT NORM =   0.02567

          MOLECULAR WEIGHT =   36.46



          ROTATIONAL CONSTANTS IN CM(-1)

          A =    0.00000000   B =   10.61572040   C =   10.61572040



           PRINCIPAL MOMENTS OF INERTIA IN UNITS OF 10**(-40)*GRAM-CM**2

          A =        0.0000   B =        2.6369   C =        2.6369


          ORIENTATION OF MOLECULE IN FORCE CALCULATION

    NO.       ATOM         X         Y         Z

     1          H      -1.2377    0.0000    0.0000
     2         Cl       0.0352    0.0000   -0.0000


    FIRST DERIVATIVES WILL BE USED IN THE CALCULATION OF SECOND DERIVATIVES

          ESTIMATED TIME TO COMPLETE CALCULATION =        0.00 SECONDS

    FOR POINT-GROUP C*v  THERE ARE  84 UNIQUE SYMMETRY FUNCTIONS.

 STEP:   1 TIME =     0.02 SECS, INTEGRAL =      0.02 TIME LEFT: 172799.98
 STEP:   2 TIME =     0.02 SECS, INTEGRAL =      0.03 TIME LEFT: 172799.97
 STEP:   3 TIME =     0.02 SECS, INTEGRAL =      0.05 TIME LEFT: 172799.95
 STEP:   4 TIME =     0.02 SECS, INTEGRAL =      0.06 TIME LEFT: 172799.94
 STEP:   5 TIME =     0.03 SECS, INTEGRAL =      0.09 TIME LEFT: 172799.91
 STEP:   6 TIME =     0.02 SECS, INTEGRAL =      0.11 TIME LEFT: 172799.89

(To convert to Hartree/Bohr^2, multiply by (10^(-21) x N x a0^2)/(4.184 x 627.51) =  0.0642)


           FORCE MATRIX IN MILLIDYNES/ANGSTROM


                  H  1      Cl  2
 ------------------------------
     H    1   4.921921
    Cl    2   4.921922   4.921924


          HEAT OF FORMATION =     -20.486161 KCALS/MOLE

          ZERO POINT ENERGY       4.174 KCAL/MOL


           NORMAL COORDINATE ANALYSIS (Total motion = 1 Angstrom)


   Root No.       1

                 1 Sig 

                2919.6
  
           1    0.9724
           2   -0.0000
           3   -0.0000
           4   -0.0276
           5    0.0000
           6    0.0000


           MASS-WEIGHTED COORDINATE ANALYSIS (NORMAL COORDINATES)


   Root No.       1

                 1 Sig 

                2919.6
  
           1    0.9861
           2   -0.0000
           3   -0.0000
           4   -0.1663
           5    0.0000
           6    0.0000


          DESCRIPTION OF VIBRATIONS


 VIBRATION          1    1Sig        ATOM PAIR     ENERGY CONTRIBUTION    RADIAL
 FREQUENCY          2919.58         H 1 -- Cl2        +100.0% (100.0%)    100.0%
 TRANSITION DIPOLE   1.2179
 TRAVEL (Ang.)       0.1535
 REDUCED MASS        0.9800
 EFFECTIVE MASS      1.3014
 FORCE CONSTANT      4.9219

      SYMMETRY NUMBER FOR POINT-GROUP C*v =  1


          SYSTEM IS A GROUND STATE



 HCl


          MOLECULE IS LINEAR

          THERE ARE  1 GENUINE VIBRATIONS IN THIS SYSTEM
          THIS THERMODYNAMICS CALCULATION IS LIMITED TO
          MOLECULES WHICH HAVE NO INTERNAL ROTATIONS




                    CALCULATED THERMODYNAMIC PROPERTIES
                                          *
   TEMP. (K)   PARTITION FUNCTION   H.O.F.    ENTHALPY  HEAT CAPACITY ENTROPY
                                   KCAL/MOL   CAL/MOLE    CAL/K/MOL  CAL/K/MOL


 298.00  VIB.     0.1000D+01                     0.0063     0.0003     0.0000
         ROT.     0.1951D+02                   592.1869     1.9872     7.8911
         INT.     0.1951D+02                   592.1932     1.9875     7.8911
         TRA.     0.2128D+27                  1480.4672     4.9680    36.7083
         TOT.                      -20.486    2072.6603     6.9555    44.5995

 200.00  VIB.     0.1000D+01                     0.0000     0.0000     0.0000
         ROT.     0.1309D+02                   397.4409     1.9872     7.0987
         INT.     0.1309D+02                   397.4409     1.9872     7.0987
         TRA.     0.1170D+27                   993.6021     4.9680    34.7272
         TOT.                      -21.168    1391.0430     6.9552    41.8259

 210.00  VIB.     0.1000D+01                     0.0000     0.0000     0.0000
         ROT.     0.1375D+02                   417.3129     1.9872     7.1956
         INT.     0.1375D+02                   417.3129     1.9872     7.1956
         TRA.     0.1259D+27                  1043.2822     4.9680    34.9696
         TOT.                      -21.098    1460.5951     6.9552    42.1652

 220.00  VIB.     0.1000D+01                     0.0000     0.0000     0.0000
         ROT.     0.1440D+02                   437.1849     1.9872     7.2881
         INT.     0.1440D+02                   437.1850     1.9872     7.2881
         TRA.     0.1350D+27                  1092.9623     4.9680    35.2007
         TOT.                      -21.029    1530.1473     6.9552    42.4888

 230.00  VIB.     0.1000D+01                     0.0001     0.0000     0.0000
         ROT.     0.1506D+02                   457.0570     1.9872     7.3764
         INT.     0.1506D+02                   457.0571     1.9872     7.3764
         TRA.     0.1443D+27                  1142.6424     4.9680    35.4215
         TOT.                      -20.959    1599.6995     6.9552    42.7979

 240.00  VIB.     0.1000D+01                     0.0002     0.0000     0.0000
         ROT.     0.1571D+02                   476.9290     1.9872     7.4610
         INT.     0.1571D+02                   476.9292     1.9872     7.4610
         TRA.     0.1538D+27                  1192.3226     4.9680    35.6330
         TOT.                      -20.890    1669.2518     6.9552    43.0940

 250.00  VIB.     0.1000D+01                     0.0004     0.0000     0.0000
         ROT.     0.1637D+02                   496.8011     1.9872     7.5421
         INT.     0.1637D+02                   496.8015     1.9872     7.5421
         TRA.     0.1636D+27                  1242.0027     4.9680    35.8358
         TOT.                      -20.820    1738.8041     6.9552    43.3779

 260.00  VIB.     0.1000D+01                     0.0008     0.0000     0.0000
         ROT.     0.1702D+02                   516.6731     1.9872     7.6200
         INT.     0.1702D+02                   516.6739     1.9873     7.6200
         TRA.     0.1735D+27                  1291.6828     4.9680    36.0306
         TOT.                      -20.750    1808.3567     6.9553    43.6507

 270.00  VIB.     0.1000D+01                     0.0015     0.0001     0.0000
         ROT.     0.1768D+02                   536.5451     1.9872     7.6950
         INT.     0.1768D+02                   536.5466     1.9873     7.6950
         TRA.     0.1836D+27                  1341.3629     4.9680    36.2181
         TOT.                      -20.681    1877.9095     6.9553    43.9132

 280.00  VIB.     0.1000D+01                     0.0025     0.0001     0.0000
         ROT.     0.1833D+02                   556.4172     1.9872     7.7673
         INT.     0.1833D+02                   556.4197     1.9873     7.7673
         TRA.     0.1939D+27                  1391.0430     4.9680    36.3988
         TOT.                      -20.611    1947.4627     6.9554    44.1661

 290.00  VIB.     0.1000D+01                     0.0043     0.0002     0.0000
         ROT.     0.1899D+02                   576.2892     1.9872     7.8370
         INT.     0.1899D+02                   576.2935     1.9874     7.8371
         TRA.     0.2043D+27                  1440.7231     4.9680    36.5731
         TOT.                      -20.542    2017.0166     6.9554    44.4102

 300.00  VIB.     0.1000D+01                     0.0069     0.0003     0.0000
         ROT.     0.1964D+02                   596.1613     1.9872     7.9044
         INT.     0.1964D+02                   596.1682     1.9875     7.9044
         TRA.     0.2150D+27                  1490.4032     4.9680    36.7416
         TOT.                      -20.472    2086.5714     6.9555    44.6460

 310.00  VIB.     0.1000D+01                     0.0109     0.0005     0.0000
         ROT.     0.2030D+02                   616.0333     1.9872     7.9696
         INT.     0.2030D+02                   616.0442     1.9877     7.9696
         TRA.     0.2258D+27                  1540.0833     4.9680    36.9045
         TOT.                      -20.403    2156.1275     6.9557    44.8741

 320.00  VIB.     0.1000D+01                     0.0166     0.0007     0.0001
         ROT.     0.2095D+02                   635.9054     1.9872     8.0327
         INT.     0.2095D+02                   635.9220     1.9879     8.0327
         TRA.     0.2368D+27                  1589.7634     4.9680    37.0622
         TOT.                      -20.333    2225.6854     6.9559    45.0949

 330.00  VIB.     0.1000D+01                     0.0247     0.0010     0.0001
         ROT.     0.2161D+02                   655.7774     1.9872     8.0938
         INT.     0.2161D+02                   655.8021     1.9882     8.0939
         TRA.     0.2480D+27                  1639.4435     4.9680    37.2151
         TOT.                      -20.264    2295.2457     6.9562    45.3090

 340.00  VIB.     0.1000D+01                     0.0360     0.0013     0.0001
         ROT.     0.2226D+02                   675.6494     1.9872     8.1531
         INT.     0.2226D+02                   675.6854     1.9885     8.1532
         TRA.     0.2594D+27                  1689.1236     4.9680    37.3634
         TOT.                      -20.194    2364.8090     6.9565    45.5166

 350.00  VIB.     0.1000D+01                     0.0512     0.0018     0.0002
         ROT.     0.2292D+02                   695.5215     1.9872     8.2107
         INT.     0.2292D+02                   695.5727     1.9890     8.2109
         TRA.     0.2709D+27                  1738.8037     4.9680    37.5074
         TOT.                      -20.124    2434.3764     6.9570    45.7183

 360.00  VIB.     0.1000D+01                     0.0715     0.0023     0.0002
         ROT.     0.2357D+02                   715.3935     1.9872     8.2667
         INT.     0.2357D+02                   715.4650     1.9895     8.2669
         TRA.     0.2826D+27                  1788.4838     4.9680    37.6473
         TOT.                      -20.055    2503.9488     6.9575    45.9143

 370.00  VIB.     0.1000D+01                     0.0979     0.0030     0.0003
         ROT.     0.2422D+02                   735.2656     1.9872     8.3212
         INT.     0.2423D+02                   735.3635     1.9902     8.3215
         TRA.     0.2945D+27                  1838.1639     4.9680    37.7835
         TOT.                      -19.985    2573.5275     6.9582    46.1049

 380.00  VIB.     0.1000D+01                     0.1321     0.0038     0.0004
         ROT.     0.2488D+02                   755.1376     1.9872     8.3742
         INT.     0.2488D+02                   755.2697     1.9910     8.3745
         TRA.     0.3065D+27                  1887.8440     4.9680    37.9159
         TOT.                      -19.916    2643.1137     6.9591    46.2905

 390.00  VIB.     0.1000D+01                     0.1753     0.0048     0.0005
         ROT.     0.2553D+02                   775.0097     1.9872     8.4258
         INT.     0.2553D+02                   775.1850     1.9920     8.4263
         TRA.     0.3187D+27                  1937.5242     4.9680    38.0450
         TOT.                      -19.846    2712.7091     6.9601    46.4713

 400.00  VIB.     0.1000D+01                     0.2295     0.0060     0.0006
         ROT.     0.2619D+02                   794.8817     1.9872     8.4761
         INT.     0.2619D+02                   795.1112     1.9932     8.4767
         TRA.     0.3310D+27                  1987.2043     4.9680    38.1708
         TOT.                      -19.777    2782.3155     6.9612    46.6475

   *: NOTE: HEATS OF FORMATION ARE RELATIVE TO THE
            ELEMENTS IN THEIR STANDARD STATE AT 298K
              (=  Standard Enthalpy of Formation).

            Hvib:  Zero-point energy is not included.
                   frequencies of less than zero cm-1 are not included.
            Hrot = (3/2)RT
            Htra = (3/2)RT + pV = (5/2)RT

            Heat capacity is Cp, not Cv

          For more information, see: HTTP://OpenMOPAC.net/Manual/thermochemistry.html


           FORCE CONSTANT IN CARTESIAN COORDINATES (Millidynes/A)

    ATOM   CHEMICAL       X               Y               Z
   NUMBER   SYMBOL  FORCE CONSTANT  FORCE CONSTANT  FORCE CONSTANT

      1       H        4.921907        0.008581        0.008581
      2      Cl        4.921907        0.008581        0.008581

 **********************
 *                    *
 * JOB ENDED NORMALLY *
 *                    *
 **********************



 TOTAL JOB TIME:             0.23 SECONDS

 == MOPAC DONE ==
