 *******************************************************************************
 **                                                                           **
 **                              MOPAC v22.1.0                                **
 **                                                                           **
 *******************************************************************************
 **          Digital Object Identifier (DOI): 10.5281/zenodo.6511958          **
 **    Visit the DOI location for information on how to cite this program.    **
 *******************************************************************************

                              PM7 CALCULATION RESULTS

 *******************************************************************************
 *  CALCULATION DONE:                                Mon Jan 29 20:38:12 2024  *
 *  PM7        - The PM7 Hamiltonian to be used
 *  SINGLET    - SPIN STATE DEFINED AS A SINGLET
 *
 *
 *
 *                 CHARGE ON SYSTEM = 0
 *
 *
 *
 *  PRECISE    - TIGHTER CRITERIA TO BE USED
 *  T=         - A TIME OF 172800.0 SECONDS REQUESTED
 *  DUMP=N     - RESTART FILE WRITTEN EVERY 7200.0 SECONDS REQUESTED
 *  LARGE      - EXPANDED OUTPUT TO BE PRINTED
 *  GRAPH      - GENERATE FILE FOR GRAPHICS
 *  ALLVEC     - PRINT ALL EIGENVECTORS
 *******************************************************************************
 LARGE CHARGE=0 SINGLET  PM7 PRECISE ALLVEC GRAPHF
 F2 molecule

   ATOM   CHEMICAL          X               Y               Z
  NUMBER   SYMBOL      (ANGSTROMS)     (ANGSTROMS)     (ANGSTROMS)
 
     1       F          0.00000000  *   0.00000000  *   0.00000000  *
     2       F          0.00000000  *   0.00000000  *   1.40000000  *
 


          CARTESIAN COORDINATES 

    NO.       ATOM           X           Y           Z

     1         F          0.0000      0.0000      0.0000
     2         F          0.0000      0.0000      1.4000

 General Reference for PM7:
 "Optimization of Parameters for Semiempirical Methods VI: More Modifications to the 
 NDDO Approximations and Re-optimization of Parameters", J. J. P. Stewart, J. Mol. Mod., 1:32, 19 (2013)
 https://link.springer.com/article/10.1007/s00894-012-1667-x

           Empirical Formula: F2  =     2 atoms



      MOLECULAR POINT GROUP   :   D*h 


 SINGLET STATE CALCULATION


      RHF CALCULATION, NO. OF DOUBLY OCCUPIED LEVELS = 7


          Geometry optimization using EF

          DIAGONAL MATRIX USED AS START HESSIAN

 CYCLE:     1 TIME:   0.008 TIME LEFT:  2.00D  GRAD.:    33.107 HEAT: -15.69369
 CYCLE:     2 TIME:   0.000 TIME LEFT:  2.00D  GRAD.:    28.277 HEAT: -15.71947
 CYCLE:     3 TIME:   0.008 TIME LEFT:  2.00D  GRAD.:     1.739 HEAT: -15.86478
 CYCLE:     4 TIME:   0.000 TIME LEFT:  2.00D  GRAD.:     0.104 HEAT: -15.86529
 CYCLE:     5 TIME:   0.000 TIME LEFT:  2.00D  GRAD.:     0.003 HEAT: -15.86529

     GRADIENT =  0.00329 IS LESS THAN CUTOFF =  0.05000



 -------------------------------------------------------------------------------
 LARGE CHARGE=0 SINGLET  PM7 PRECISE ALLVEC GRAPHF
 F2 molecule



     GEOMETRY OPTIMISED USING EIGENVECTOR FOLLOWING (EF).     
     SCF FIELD WAS ACHIEVED                                   


                              PM7 CALCULATION
                                                       MOPAC v22.1.0 Windows
                                                       Mon Jan 29 20:38:12 2024




          FINAL HEAT OF FORMATION =        -15.86529 KCAL/MOL =     -66.38039 KJ/MOL


          COSMO AREA              =         52.33 SQUARE ANGSTROMS
          COSMO VOLUME            =         33.92 CUBIC ANGSTROMS

          GRADIENT NORM           =          0.00329          =       0.00232 PER ATOM
          IONIZATION POTENTIAL    =         16.096207 EV
          HOMO LUMO ENERGIES (EV) =        -16.096 -0.737
          NO. OF FILLED LEVELS    =          7
          MOLECULAR WEIGHT        =         37.9968         POINT GROUP:  D*h 

          MOLECULAR DIMENSIONS (Angstroms)

            Atom       Atom       Distance
            F     2    F     1     1.41495
            F     2    F     1     0.00000
            F     1    F     2     0.00000


          SCF CALCULATIONS        =          9
 
          WALL-CLOCK TIME         =      0.062 SECONDS
          COMPUTATION TIME        =      0.031 SECONDS




   ATOM   CHEMICAL          X               Y               Z
  NUMBER   SYMBOL      (ANGSTROMS)     (ANGSTROMS)     (ANGSTROMS)
 
     1       F          0.00000000  *   0.00000000  *  -0.00747439  *
     2       F          0.00000000  *   0.00000000  *   1.40747439  *

                             CARTESIAN COORDINATES

   1    F        0.000000000     0.000000000    -0.007474392
   2    F        0.000000000     0.000000000     1.407474393


           Empirical Formula: F2  =     2 atoms



      MOLECULAR POINT GROUP   :   D*h 


                EIGENVECTORS  


   Root No.       1         2         3         4         5         6         7         8

                 1 sig     1 siu     1 piu     1 piu     2 sig     1 pig     1 pig     2 siu 

               -41.570   -41.336   -17.657   -17.657   -16.122   -16.096   -16.096    -0.737
  
  S   F    1    0.7060    0.7066    0.0000    0.0000   -0.0401   -0.0000   -0.0000    0.0274
  Px  F    1   -0.0000   -0.0000    0.7071    0.0001   -0.0000    0.7071    0.0000    0.0000
  Py  F    1   -0.0000   -0.0000   -0.0001    0.7071   -0.0000   -0.0000    0.7071    0.0000
  Pz  F    1    0.0401   -0.0274    0.0000   -0.0000    0.7060    0.0000    0.0000    0.7066
  S   F    2    0.7060   -0.7066    0.0000    0.0000   -0.0401   -0.0000   -0.0000   -0.0274
  Px  F    2   -0.0000   -0.0000    0.7071    0.0001    0.0000   -0.7071   -0.0000    0.0000
  Py  F    2    0.0000   -0.0000   -0.0001    0.7071    0.0000    0.0000   -0.7071    0.0000
  Pz  F    2   -0.0401   -0.0274   -0.0000   -0.0000   -0.7060   -0.0000   -0.0000    0.7066


              NET ATOMIC CHARGES AND DIPOLE CONTRIBUTIONS

  ATOM NO.   TYPE          CHARGE      No. of ELECS.   s-Pop       p-Pop       
    1          F          -0.000000        7.0000     1.99849     5.00151
    2          F           0.000000        7.0000     1.99849     5.00151
 DIPOLE           X         Y         Z       TOTAL
 POINT-CHG.     0.000     0.000     0.000     0.000
 HYBRID        -0.000    -0.000    -0.000     0.000
 SUM           -0.000    -0.000     0.000     0.000


          ATOMIC ORBITAL ELECTRON POPULATIONS

     Atom    s        px        py        pz   
    1  F   1.99849   2.00000   2.00000   1.00151
    2  F   1.99849   2.00000   2.00000   1.00151

           DATA FOR GRAPH WRITTEN TO DISK

 **********************
 *                    *
 * JOB ENDED NORMALLY *
 *                    *
 **********************



 TOTAL JOB TIME:             0.07 SECONDS

 == MOPAC DONE ==
