 *******************************************************************************
 **                                                                           **
 **                              MOPAC v22.1.1                                **
 **                                                                           **
 *******************************************************************************
 **          Digital Object Identifier (DOI): 10.5281/zenodo.6511958          **
 **    Visit the DOI location for information on how to cite this program.    **
 *******************************************************************************

                              PM7 CALCULATION RESULTS

 *******************************************************************************
 *  CALCULATION DONE:                                Tue Feb 20 19:08:56 2024  *
 *  PM7        - The PM7 Hamiltonian to be used
 *  SINGLET    - SPIN STATE DEFINED AS A SINGLET
 *
 *
 *
 *                 CHARGE ON SYSTEM = 0
 *
 *
 *
 *  PRECISE    - TIGHTER CRITERIA TO BE USED
 *  T=         - A TIME OF 172800.0 SECONDS REQUESTED
 *  DUMP=N     - RESTART FILE WRITTEN EVERY 7200.0 SECONDS REQUESTED
 *******************************************************************************
 PRECISE CHARGE=0 SINGLET  PM7
 Cyklohexan, stolicka

   ATOM   CHEMICAL          X               Y               Z
  NUMBER   SYMBOL      (ANGSTROMS)     (ANGSTROMS)     (ANGSTROMS)
 
     1       C         -3.21863000  *   2.47528000  *  -0.25255000  *
     2       C         -4.46907000  *   1.73502000  *   0.21447000  *
     3       C         -4.44570000  *   0.26855000  *  -0.20814000  *
     4       C         -3.17113000  *  -0.43084000  *   0.25664000  *
     5       C         -1.92069000  *   0.30942000  *  -0.21039000  *
     6       C         -1.94405000  *   1.77590000  *   0.21223000  *
     7       H         -3.23493000  *   3.50307000  *   0.12714000  *
     8       H         -3.22063000  *   2.53885000  *  -1.34771000  *
     9       H         -5.36096000  *   2.22273000  *  -0.19473000  *
    10       H         -4.54296000  *   1.79810000  *   1.30716000  *
    11       H         -4.51946000  *   0.20308000  *  -1.30070000  *
    12       H         -5.32061000  *  -0.24776000  *   0.20263000  *
    13       H         -3.15483000  *  -1.45862000  *  -0.12306000  *
    14       H         -3.16913000  *  -0.49441000  *   1.35179000  *
    15       H         -1.84679000  *   0.24635000  *  -1.30307000  *
    16       H         -1.02880000  *  -0.17828000  *   0.19882000  *
    17       H         -1.06914000  *   2.29221000  *  -0.19854000  *
    18       H         -1.87030000  *   1.84137000  *   1.30479000  *
 


          CARTESIAN COORDINATES 

    NO.       ATOM           X           Y           Z

     1         C         -3.2186      2.4753     -0.2525
     2         C         -4.4691      1.7350      0.2145
     3         C         -4.4457      0.2686     -0.2081
     4         C         -3.1711     -0.4308      0.2566
     5         C         -1.9207      0.3094     -0.2104
     6         C         -1.9441      1.7759      0.2122
     7         H         -3.2349      3.5031      0.1271
     8         H         -3.2206      2.5389     -1.3477
     9         H         -5.3610      2.2227     -0.1947
    10         H         -4.5430      1.7981      1.3072
    11         H         -4.5195      0.2031     -1.3007
    12         H         -5.3206     -0.2478      0.2026
    13         H         -3.1548     -1.4586     -0.1231
    14         H         -3.1691     -0.4944      1.3518
    15         H         -1.8468      0.2464     -1.3031
    16         H         -1.0288     -0.1783      0.1988
    17         H         -1.0691      2.2922     -0.1985
    18         H         -1.8703      1.8414      1.3048

 General Reference for PM7:
 "Optimization of Parameters for Semiempirical Methods VI: More Modifications to the 
 NDDO Approximations and Re-optimization of Parameters", J. J. P. Stewart, J. Mol. Mod., 1:32, 19 (2013)
 https://link.springer.com/article/10.1007/s00894-012-1667-x

           Empirical Formula: C6 H12  =    18 atoms



      MOLECULAR POINT GROUP   :   D3d 


 SINGLET STATE CALCULATION


      RHF CALCULATION, NO. OF DOUBLY OCCUPIED LEVELS = 18


          Geometry optimization using EF

          DIAGONAL MATRIX USED AS START HESSIAN

 CYCLE:     1 TIME:   0.055 TIME LEFT:  2.00D  GRAD.:    26.302 HEAT: -26.52984
 CYCLE:     2 TIME:   0.070 TIME LEFT:  2.00D  GRAD.:    13.201 HEAT: -27.06240
 CYCLE:     3 TIME:   0.070 TIME LEFT:  2.00D  GRAD.:    18.444 HEAT: -27.08833
 CYCLE:     4 TIME:   0.039 TIME LEFT:  2.00D  GRAD.:     9.277 HEAT: -27.25146
 CYCLE:     5 TIME:   0.039 TIME LEFT:  2.00D  GRAD.:     9.469 HEAT: -27.28481
 CYCLE:     6 TIME:   0.031 TIME LEFT:  2.00D  GRAD.:     2.279 HEAT: -27.33521
 CYCLE:     7 TIME:   0.039 TIME LEFT:  2.00D  GRAD.:     3.967 HEAT: -27.34100
 CYCLE:     8 TIME:   0.039 TIME LEFT:  2.00D  GRAD.:     5.445 HEAT: -27.35385
 CYCLE:     9 TIME:   0.031 TIME LEFT:  2.00D  GRAD.:     8.497 HEAT: -27.35410
 CYCLE:    10 TIME:   0.039 TIME LEFT:  2.00D  GRAD.:     6.540 HEAT: -27.38186
 CYCLE:    11 TIME:   0.031 TIME LEFT:  2.00D  GRAD.:     5.556 HEAT: -27.39388
 CYCLE:    12 TIME:   0.039 TIME LEFT:  2.00D  GRAD.:     2.519 HEAT: -27.40767
 CYCLE:    13 TIME:   0.039 TIME LEFT:  2.00D  GRAD.:     2.349 HEAT: -27.41399
 CYCLE:    14 TIME:   0.031 TIME LEFT:  2.00D  GRAD.:     5.790 HEAT: -27.40908
 CYCLE:    15 TIME:   0.039 TIME LEFT:  2.00D  GRAD.:     3.250 HEAT: -27.42112
 CYCLE:    16 TIME:   0.109 TIME LEFT:  2.00D  GRAD.:     1.596 HEAT: -27.42540
 CYCLE:    17 TIME:   0.039 TIME LEFT:  2.00D  GRAD.:     0.863 HEAT: -27.42784
 CYCLE:    18 TIME:   0.031 TIME LEFT:  2.00D  GRAD.:     2.518 HEAT: -27.42767
 CYCLE:    19 TIME:   0.039 TIME LEFT:  2.00D  GRAD.:     1.102 HEAT: -27.43028
 CYCLE:    20 TIME:   0.031 TIME LEFT:  2.00D  GRAD.:     0.639 HEAT: -27.43111
 CYCLE:    21 TIME:   0.039 TIME LEFT:  2.00D  GRAD.:     0.571 HEAT: -27.43182
 CYCLE:    22 TIME:   0.031 TIME LEFT:  2.00D  GRAD.:     0.708 HEAT: -27.43271
 CYCLE:    23 TIME:   0.039 TIME LEFT:  2.00D  GRAD.:     0.421 HEAT: -27.43306
 CYCLE:    24 TIME:   0.039 TIME LEFT:  2.00D  GRAD.:     0.240 HEAT: -27.43321
 CYCLE:    25 TIME:   0.031 TIME LEFT:  2.00D  GRAD.:     0.238 HEAT: -27.43326
 CYCLE:    26 TIME:   0.039 TIME LEFT:  2.00D  GRAD.:     0.077 HEAT: -27.43329
 CYCLE:    27 TIME:   0.031 TIME LEFT:  2.00D  GRAD.:     0.025 HEAT: -27.43329

     GRADIENT =  0.02505 IS LESS THAN CUTOFF =  0.05000



 -------------------------------------------------------------------------------
 PRECISE CHARGE=0 SINGLET  PM7
 Cyklohexan, stolicka



     GEOMETRY OPTIMISED USING EIGENVECTOR FOLLOWING (EF).     
     SCF FIELD WAS ACHIEVED                                   


                              PM7 CALCULATION
                                                       MOPAC v22.1.1 Windows
                                                       Tue Feb 20 19:08:57 2024




          FINAL HEAT OF FORMATION =        -27.43329 KCAL/MOL =    -114.78088 KJ/MOL


          COSMO AREA              =        132.97 SQUARE ANGSTROMS
          COSMO VOLUME            =        127.54 CUBIC ANGSTROMS

          GRADIENT NORM           =          0.02505          =       0.00590 PER ATOM
          IONIZATION POTENTIAL    =         10.812653 EV
          HOMO LUMO ENERGIES (EV) =        -10.813  4.131
          NO. OF FILLED LEVELS    =         18
          MOLECULAR WEIGHT        =         84.1608         POINT GROUP:  D3d 

          MOLECULAR DIMENSIONS (Angstroms)

            Atom       Atom       Distance
            H    16    H     9     5.00523
            H    13    H     7     4.34493
            H    14    H    15     2.82667


          SCF CALCULATIONS        =         32
 
          WALL-CLOCK TIME         =      1.203 SECONDS
          COMPUTATION TIME        =      5.703 SECONDS




   ATOM   CHEMICAL          X               Y               Z
  NUMBER   SYMBOL      (ANGSTROMS)     (ANGSTROMS)     (ANGSTROMS)
 
     1       C         -3.21861888  *   2.47356957  *  -0.26873403  *
     2       C         -4.46784621  *   1.73467845  *   0.23068485  *
     3       C         -4.44450715  *   0.26895388  *  -0.22436168  *
     4       C         -3.17113650  *  -0.42912504  *   0.27282006  *
     5       C         -1.92190538  *   0.30977065  *  -0.22660301  *
     6       C         -1.94525402  *   1.77549936  *   0.22844590  *
     7       H         -3.23528774  *   3.52345808  *   0.07442664  *
     8       H         -3.22018909  *   2.51071409  *  -1.37379504  *
     9       H         -5.37967158  *   2.23416859  *  -0.14266178  *
    10       H         -4.51883053  *   1.78523086  *   1.33403996  *
    11       H         -4.49582261  *   0.21672954  *  -1.32763573  *
    12       H         -5.33900262  *  -0.25981033  *   0.15065398  *
    13       H         -3.15447156  *  -1.47901920  *  -0.07039321  *
    14       H         -3.16956545  *  -0.46629670  *   1.37789955  *
    15       H         -1.87089479  *   0.25921380  *  -1.32996520  *
    16       H         -1.01008114  *  -0.18972089  *   0.14678221  *
    17       H         -1.05075392  *   2.30425722  *  -0.14652062  *
    18       H         -1.89397540  *   1.82770673  *   1.33171653  *

                             CARTESIAN COORDINATES

   1    C       -3.218618877     2.473569572    -0.268734027
   2    C       -4.467846212     1.734678449     0.230684851
   3    C       -4.444507149     0.268953881    -0.224361683
   4    C       -3.171136501    -0.429125038     0.272820062
   5    C       -1.921905382     0.309770646    -0.226603011
   6    C       -1.945254023     1.775499356     0.228445897
   7    H       -3.235287744     3.523458084     0.074426643
   8    H       -3.220189085     2.510714085    -1.373795036
   9    H       -5.379671576     2.234168587    -0.142661775
  10    H       -4.518830531     1.785230856     1.334039963
  11    H       -4.495822607     0.216729536    -1.327635730
  12    H       -5.339002619    -0.259810329     0.150653976
  13    H       -3.154471556    -1.479019199    -0.070393206
  14    H       -3.169565445    -0.466296702     1.377899548
  15    H       -1.870894790     0.259213799    -1.329965198
  16    H       -1.010081141    -0.189720890     0.146782213
  17    H       -1.050753917     2.304257224    -0.146520617
  18    H       -1.893975396     1.827706726     1.331716529


           Empirical Formula: C6 H12  =    18 atoms



      MOLECULAR POINT GROUP   :   D3d 


                  EIGENVALUES  
 -30.03305 -25.70925 -25.70921 -20.57696 -20.57679 -18.97835 -16.42247 -14.85539
 -14.85535 -14.66415 -13.08350 -12.86631 -12.86614 -11.83309 -11.83307 -10.94769
 -10.81271 -10.81265   4.13109   4.13110   4.34358   4.77702   4.77708   4.99380
   5.85848   5.85849   5.91801   5.93818   6.18890   6.18892   6.64265   6.73311
   6.73316   6.78064   6.82205   6.82206


              NET ATOMIC CHARGES AND DIPOLE CONTRIBUTIONS

  ATOM NO.   TYPE          CHARGE      No. of ELECS.   s-Pop       p-Pop       
    1          C          -0.262160        4.2622     1.05834     3.20382
    2          C          -0.262160        4.2622     1.05834     3.20382
    3          C          -0.262159        4.2622     1.05834     3.20381
    4          C          -0.262159        4.2622     1.05835     3.20381
    5          C          -0.262159        4.2622     1.05834     3.20382
    6          C          -0.262160        4.2622     1.05834     3.20382
    7          H           0.127477        0.8725     0.87252
    8          H           0.134683        0.8653     0.86532
    9          H           0.127477        0.8725     0.87252
   10          H           0.134683        0.8653     0.86532
   11          H           0.134684        0.8653     0.86532
   12          H           0.127475        0.8725     0.87252
   13          H           0.127477        0.8725     0.87252
   14          H           0.134684        0.8653     0.86532
   15          H           0.134683        0.8653     0.86532
   16          H           0.127477        0.8725     0.87252
   17          H           0.127475        0.8725     0.87252
   18          H           0.134684        0.8653     0.86532
 DIPOLE           X         Y         Z       TOTAL
 POINT-CHG.    -0.000    -0.000     0.000     0.000
 HYBRID        -0.000     0.000     0.000     0.000
 SUM           -0.000    -0.000     0.000     0.000


          ATOMIC ORBITAL ELECTRON POPULATIONS

     Atom    s        px        py        pz   
    1  C   1.05834   0.99745   1.07824   1.12814
    2  C   1.05834   1.05793   1.01535   1.13055
    3  C   1.05834   1.05562   1.01752   1.13067
    4  C   1.05835   0.99744   1.07824   1.12813
    5  C   1.05834   1.05793   1.01535   1.13054
    6  C   1.05834   1.05562   1.01752   1.13068
    7  H   0.87252
    8  H   0.86532
    9  H   0.87252
   10  H   0.86532
   11  H   0.86532
   12  H   0.87252
   13  H   0.87252
   14  H   0.86532
   15  H   0.86532
   16  H   0.87252
   17  H   0.87252
   18  H   0.86532

 **********************
 *                    *
 * JOB ENDED NORMALLY *
 *                    *
 **********************



 TOTAL JOB TIME:             1.21 SECONDS

 == MOPAC DONE ==
