 *******************************************************************************
 **                                                                           **
 **                              MOPAC v22.1.0                                **
 **                                                                           **
 *******************************************************************************
 **          Digital Object Identifier (DOI): 10.5281/zenodo.6511958          **
 **    Visit the DOI location for information on how to cite this program.    **
 *******************************************************************************

                              PM7 CALCULATION RESULTS

 *******************************************************************************
 *  CALCULATION DONE:                                Mon Jan 22 19:50:03 2024  *
 *  PM7        - The PM7 Hamiltonian to be used
 *  SINGLET    - SPIN STATE DEFINED AS A SINGLET
 *
 *
 *
 *                 CHARGE ON SYSTEM = 0
 *
 *
 *
 *  PRECISE    - TIGHTER CRITERIA TO BE USED
 *  T=         - A TIME OF 172800.0 SECONDS REQUESTED
 *  DUMP=N     - RESTART FILE WRITTEN EVERY 7200.0 SECONDS REQUESTED
 *  LARGE      - EXPANDED OUTPUT TO BE PRINTED
 *******************************************************************************
 PRECISE LARGE CHARGE=0 SINGLET  PM7
 chlorcyklopropan

   ATOM   CHEMICAL          X               Y               Z
  NUMBER   SYMBOL      (ANGSTROMS)     (ANGSTROMS)     (ANGSTROMS)
 
     1       C         -3.78108000  *   0.50636000  *  -0.07153000  *
     2       C         -2.78495000  *   1.65282000  *  -0.02471000  *
     3       C         -2.28909000  *   0.21835000  *  -0.08919000  *
     4       H         -2.43239000  *   2.04534000  *   0.95309000  *
     5       H         -2.41878000  *   2.10767000  *  -0.96966000  *
     6      Cl         -1.88017000  *  -0.58507000  *   1.45208000  *
     7       H         -2.12094000  *  -0.31376000  *  -1.04962000  *
     8       H         -4.32010000  *   0.65451000  *  -1.03155000  *
     9       H         -4.33830000  *   0.60453000  *   0.88499000  *
 


          CARTESIAN COORDINATES 

    NO.       ATOM           X           Y           Z

     1         C         -3.7811      0.5064     -0.0715
     2         C         -2.7850      1.6528     -0.0247
     3         C         -2.2891      0.2184     -0.0892
     4         H         -2.4324      2.0453      0.9531
     5         H         -2.4188      2.1077     -0.9697
     6        Cl         -1.8802     -0.5851      1.4521
     7         H         -2.1209     -0.3138     -1.0496
     8         H         -4.3201      0.6545     -1.0315
     9         H         -4.3383      0.6045      0.8850

 General Reference for PM7:
 "Optimization of Parameters for Semiempirical Methods VI: More Modifications to the 
 NDDO Approximations and Re-optimization of Parameters", J. J. P. Stewart, J. Mol. Mod., 1:32, 19 (2013)
 https://link.springer.com/article/10.1007/s00894-012-1667-x

           Empirical Formula: C3 H5 Cl  =     9 atoms



      MOLECULAR POINT GROUP   :   C1  


 SINGLET STATE CALCULATION


      RHF CALCULATION, NO. OF DOUBLY OCCUPIED LEVELS = 12


          Geometry optimization using EF

          DIAGONAL MATRIX USED AS START HESSIAN

 CYCLE:     1 TIME:   0.039 TIME LEFT:  2.00D  GRAD.:   166.045 HEAT:  36.57309
 CYCLE:     2 TIME:   0.039 TIME LEFT:  2.00D  GRAD.:   101.713 HEAT:  17.26758
 CYCLE:     3 TIME:   0.047 TIME LEFT:  2.00D  GRAD.:    66.103 HEAT:  9.582624
 CYCLE:     4 TIME:   0.109 TIME LEFT:  2.00D  GRAD.:    67.250 HEAT:  8.432619
 CYCLE:     5 TIME:   0.023 TIME LEFT:  2.00D  GRAD.:    32.038 HEAT:  6.368683
 CYCLE:     6 TIME:   0.055 TIME LEFT:  2.00D  GRAD.:    20.435 HEAT:  5.825824
 CYCLE:     7 TIME:   0.070 TIME LEFT:  2.00D  GRAD.:    14.492 HEAT:  5.580040
 CYCLE:     8 TIME:   0.117 TIME LEFT:  2.00D  GRAD.:    12.732 HEAT:  5.401087
 CYCLE:     9 TIME:   0.047 TIME LEFT:  2.00D  GRAD.:    10.016 HEAT:  5.317252
 CYCLE:    10 TIME:   0.047 TIME LEFT:  2.00D  GRAD.:     9.554 HEAT:  5.289987
 CYCLE:    11 TIME:   0.188 TIME LEFT:  2.00D  GRAD.:     3.149 HEAT:  5.237908
 CYCLE:    12 TIME:   0.023 TIME LEFT:  2.00D  GRAD.:     3.206 HEAT:  5.220509
 CYCLE:    13 TIME:   0.062 TIME LEFT:  2.00D  GRAD.:     5.530 HEAT:  5.208287
 CYCLE:    14 TIME:   0.078 TIME LEFT:  2.00D  GRAD.:     4.617 HEAT:  5.204615
 CYCLE:    15 TIME:   0.047 TIME LEFT:  2.00D  GRAD.:     2.222 HEAT:  5.197442
 CYCLE:    16 TIME:   0.023 TIME LEFT:  2.00D  GRAD.:     0.985 HEAT:  5.194650
 CYCLE:    17 TIME:   0.047 TIME LEFT:  2.00D  GRAD.:     0.903 HEAT:  5.192636
 CYCLE:    18 TIME:   0.047 TIME LEFT:  2.00D  GRAD.:     0.921 HEAT:  5.190366
 CYCLE:    19 TIME:   0.055 TIME LEFT:  2.00D  GRAD.:     0.697 HEAT:  5.189392
 CYCLE:    20 TIME:   0.047 TIME LEFT:  2.00D  GRAD.:     0.394 HEAT:  5.188646
 CYCLE:    21 TIME:   0.086 TIME LEFT:  2.00D  GRAD.:     0.235 HEAT:  5.188495
 CYCLE:    22 TIME:   0.086 TIME LEFT:  2.00D  GRAD.:     0.154 HEAT:  5.188417
 CYCLE:    23 TIME:   0.031 TIME LEFT:  2.00D  GRAD.:     0.097 HEAT:  5.188392
 CYCLE:    24 TIME:   0.016 TIME LEFT:  2.00D  GRAD.:     0.071 HEAT:  5.188367
 CYCLE:    25 TIME:   0.031 TIME LEFT:  2.00D  GRAD.:     0.061 HEAT:  5.188359
 CYCLE:    26 TIME:   0.070 TIME LEFT:  2.00D  GRAD.:     0.043 HEAT:  5.188350

     GRADIENT =  0.04348 IS LESS THAN CUTOFF =  0.05000



 -------------------------------------------------------------------------------
 PRECISE LARGE CHARGE=0 SINGLET  PM7
 chlorcyklopropan



     GEOMETRY OPTIMISED USING EIGENVECTOR FOLLOWING (EF).     
     SCF FIELD WAS ACHIEVED                                   


                              PM7 CALCULATION
                                                       MOPAC v22.1.0 Windows
                                                       Mon Jan 22 19:50:05 2024




          FINAL HEAT OF FORMATION =          5.18835 KCAL/MOL =      21.70806 KJ/MOL


          COSMO AREA              =        106.99 SQUARE ANGSTROMS
          COSMO VOLUME            =         92.33 CUBIC ANGSTROMS

          GRADIENT NORM           =          0.04348          =       0.01449 PER ATOM
          IONIZATION POTENTIAL    =         10.682190 EV
          HOMO LUMO ENERGIES (EV) =        -10.682  0.935
          NO. OF FILLED LEVELS    =         12
          MOLECULAR WEIGHT        =         76.5255         POINT GROUP:  Cs  

          MOLECULAR DIMENSIONS (Angstroms)

            Atom       Atom       Distance
            H     8   Cl     6     3.69871
            H     4    H     7     3.16443
            H     9    H     5     3.14191


          SCF CALCULATIONS        =         32
 
          WALL-CLOCK TIME         =      1.586 SECONDS
          COMPUTATION TIME        =      2.953 SECONDS




   ATOM   CHEMICAL          X               Y               Z
  NUMBER   SYMBOL      (ANGSTROMS)     (ANGSTROMS)     (ANGSTROMS)
 
     1       C         -3.81942280  *   0.62391057  *  -0.08424051  *
     2       C         -2.68102776  *   1.61862455  *  -0.02283555  *
     3       C         -2.39531410  *   0.14320839  *  -0.05839688  *
     4       H         -2.51481623  *   2.19139643  *   0.88876311  *
     5       H         -2.44390833  *   2.23430835  *  -0.88770027  *
     6      Cl         -1.83604029  *  -0.58792398  *   1.42410080  *
     7       H         -1.92227294  *  -0.34611019  *  -0.90666232  *
     8       H         -4.40705033  *   0.51886319  *  -0.99361938  *
     9       H         -4.46388072  *   0.48840508  *   0.78351625  *

                             CARTESIAN COORDINATES

   1    C       -3.819422803     0.623910565    -0.084240509
   2    C       -2.681027757     1.618624553    -0.022835553
   3    C       -2.395314098     0.143208387    -0.058396878
   4    H       -2.514816232     2.191396426     0.888763106
   5    H       -2.443908332     2.234308352    -0.887700274
   6   Cl       -1.836040295    -0.587923976     1.424100801
   7    H       -1.922272945    -0.346110192    -0.906662318
   8    H       -4.407050328     0.518863187    -0.993619381
   9    H       -4.463880718     0.488405082     0.783516249


           Empirical Formula: C3 H5 Cl  =     9 atoms



      MOLECULAR POINT GROUP   :   Cs  


                  EIGENVALUES  
 -31.06852 -25.55866 -21.45889 -20.55463 -17.42607 -16.21788 -13.18297 -13.12698
 -12.93920 -12.40332 -10.92904 -10.68219   0.93457   1.82473   3.62936   3.74043
   4.79024   5.34441   5.56436   5.92409   5.97217  70.03901  70.11301  70.12509
  70.37685  70.37821


              NET ATOMIC CHARGES AND DIPOLE CONTRIBUTIONS

  ATOM NO.   TYPE          CHARGE      No. of ELECS.   s-Pop       p-Pop       d-Pop       
    1          C          -0.322992        4.3230     1.05395     3.26904
    2          C          -0.322945        4.3229     1.05396     3.26899
    3          C          -0.085824        4.0858     1.08379     3.00203
    4          H           0.174911        0.8251     0.82509
    5          H           0.166127        0.8339     0.83387
    6         Cl          -0.125048        7.1250     1.98240     5.13649     0.00615
    7          H           0.174735        0.8253     0.82527
    8          H           0.166128        0.8339     0.83387
    9          H           0.174908        0.8251     0.82509
 DIPOLE           X         Y         Z       TOTAL
 POINT-CHG.    -0.769     0.973    -1.522     1.964
 HYBRID        -0.072     0.087    -0.069     0.132
 SUM           -0.841     1.060    -1.591     2.089


          ATOMIC ORBITAL ELECTRON POPULATIONS

     Atom    s        px        py        pz      x^2-y^2     xz        z^2       yz        xy
    1  C   1.05395   0.98053   1.09814   1.19037
    2  C   1.05396   1.09067   0.98747   1.19084
    3  C   1.08379   1.04073   1.00718   0.95413
    4  H   0.82509
    5  H   0.83387
    6 Cl   1.98240   1.90125   1.84001   1.39523   0.00071   0.00127   0.00175   0.00168   0.00075
    7  H   0.82527
    8  H   0.83387
    9  H   0.82509
 *******************************************************************************
 **                                                                           **
 **                              MOPAC v22.1.0                                **
 **                                                                           **
 *******************************************************************************
 **          Digital Object Identifier (DOI): 10.5281/zenodo.6511958          **
 **    Visit the DOI location for information on how to cite this program.    **
 *******************************************************************************

                              PM7 CALCULATION RESULTS

 *******************************************************************************
 *  CALCULATION DONE:                                Mon Jan 22 19:50:05 2024  *
 *  PM7        - The PM7 Hamiltonian to be used
 *  SINGLET    - SPIN STATE DEFINED AS A SINGLET
 *  OLDGEO     - PREVIOUS GEOMETRY TO BE USED
 *  PRECISE    - TIGHTER CRITERIA TO BE USED
 *  T=         - A TIME OF 172800.0 SECONDS REQUESTED
 *  DUMP=N     - RESTART FILE WRITTEN EVERY 7200.0 SECONDS REQUESTED
 *  THERMO     - THERMODYNAMIC QUANTITIES TO BE CALCULATED
 *******************************************************************************
OLDGEO PRECISE SINGLET PM7 THERMO
 chlorcyklopropan

   ATOM   CHEMICAL          X               Y               Z
  NUMBER   SYMBOL      (ANGSTROMS)     (ANGSTROMS)     (ANGSTROMS)
 
     1       C         -3.81942280  *   0.62391057  *  -0.08424051  *
     2       C         -2.68102776  *   1.61862455  *  -0.02283555  *
     3       C         -2.39531410  *   0.14320839  *  -0.05839688  *
     4       H         -2.51481623  *   2.19139643  *   0.88876311  *
     5       H         -2.44390833  *   2.23430835  *  -0.88770027  *
     6      Cl         -1.83604029  *  -0.58792398  *   1.42410080  *
     7       H         -1.92227294  *  -0.34611019  *  -0.90666232  *
     8       H         -4.40705033  *   0.51886319  *  -0.99361938  *
     9       H         -4.46388072  *   0.48840508  *   0.78351625  *
 


          CARTESIAN COORDINATES 

    NO.       ATOM           X           Y           Z

     1         C         -3.8194      0.6239     -0.0842
     2         C         -2.6810      1.6186     -0.0228
     3         C         -2.3953      0.1432     -0.0584
     4         H         -2.5148      2.1914      0.8888
     5         H         -2.4439      2.2343     -0.8877
     6        Cl         -1.8360     -0.5879      1.4241
     7         H         -1.9223     -0.3461     -0.9067
     8         H         -4.4071      0.5189     -0.9936
     9         H         -4.4639      0.4884      0.7835

 General Reference for PM7:
 "Optimization of Parameters for Semiempirical Methods VI: More Modifications to the 
 NDDO Approximations and Re-optimization of Parameters", J. J. P. Stewart, J. Mol. Mod., 1:32, 19 (2013)
 https://link.springer.com/article/10.1007/s00894-012-1667-x

           Empirical Formula: C3 H5 Cl  =     9 atoms



      MOLECULAR POINT GROUP   :   Cs  


 SINGLET STATE CALCULATION


      RHF CALCULATION, NO. OF DOUBLY OCCUPIED LEVELS = 12



          HEAT OF FORMATION =       5.188350 KCALS/MOLE


          CARTESIAN COORDINATE DERIVATIVES

   NUMBER  ATOM         X            Y            Z

     1       C      0.001386     0.004882     0.006239
     2       C      0.013025     0.014442     0.000568
     3       C      0.013675     0.006986    -0.005083
     4       H     -0.020631    -0.007559    -0.002626
     5       H     -0.002046    -0.002916    -0.001677
     6      Cl      0.008633     0.010153    -0.002384
     7       H     -0.011917    -0.004812     0.000890
     8       H     -0.005972    -0.007190    -0.002404
     9       H      0.003846    -0.013988     0.006474
 


          GRADIENT NORM =   0.04364

          MOLECULAR WEIGHT =   76.53



          ROTATIONAL CONSTANTS IN CM(-1)

          A =    0.54134023   B =    0.13176873   C =    0.12223386



           PRINCIPAL MOMENTS OF INERTIA IN UNITS OF 10**(-40)*GRAM-CM**2

          A =       51.7101   B =      212.4385   C =      229.0098


          ORIENTATION OF MOLECULE IN FORCE CALCULATION

    NO.       ATOM         X         Y         Z

     1          C      -0.7566   -1.2382    0.6778
     2          C       0.7564   -1.2382    0.6778
     3          C      -0.0001    0.0608    0.6778
     4          H       1.2950   -1.5635   -0.2114
     5          H       1.3044   -1.5425    1.5668
     6         Cl       0.0002    0.9738   -0.8093
     7          H      -0.0003    0.7437    1.5242
     8          H      -1.3048   -1.5424    1.5668
     9          H      -1.2954   -1.5635   -0.2113


    FIRST DERIVATIVES WILL BE USED IN THE CALCULATION OF SECOND DERIVATIVES

          ESTIMATED TIME TO COMPLETE CALCULATION =        4.22 SECONDS

    FOR POINT-GROUP Cs   THERE ARE   2 UNIQUE SYMMETRY FUNCTIONS.

 STEP:   1 TIME =     0.35 SECS, INTEGRAL =      0.35 TIME LEFT: 172799.61
 STEP:   2 TIME =     0.14 SECS, INTEGRAL =      0.49 TIME LEFT: 172799.47
 STEP:   3 TIME =     0.17 SECS, INTEGRAL =      0.66 TIME LEFT: 172799.30
 STEP:   4                       INTEGRAL =      0.66 TIME LEFT: 172799.30
 STEP:   5                       INTEGRAL =      0.66 TIME LEFT: 172799.30
 STEP:   6                       INTEGRAL =      0.66 TIME LEFT: 172799.30
 STEP:   7 TIME =     0.15 SECS, INTEGRAL =      0.81 TIME LEFT: 172799.15
 STEP:   8 TIME =     0.12 SECS, INTEGRAL =      0.93 TIME LEFT: 172799.03
 STEP:   9 TIME =     0.31 SECS, INTEGRAL =      1.24 TIME LEFT: 172798.72
 STEP:  10 TIME =     0.14 SECS, INTEGRAL =      1.38 TIME LEFT: 172798.58
 STEP:  11 TIME =     0.16 SECS, INTEGRAL =      1.55 TIME LEFT: 172798.41
 STEP:  12 TIME =     0.14 SECS, INTEGRAL =      1.69 TIME LEFT: 172798.27
 STEP:  13 TIME =     0.16 SECS, INTEGRAL =      1.84 TIME LEFT: 172798.12
 STEP:  14 TIME =     0.45 SECS, INTEGRAL =      2.29 TIME LEFT: 172797.67
 STEP:  15 TIME =     0.20 SECS, INTEGRAL =      2.48 TIME LEFT: 172797.48
 STEP:  16 TIME =     0.23 SECS, INTEGRAL =      2.72 TIME LEFT: 172797.24
 STEP:  17 TIME =     0.16 SECS, INTEGRAL =      2.88 TIME LEFT: 172797.09
 STEP:  18 TIME =     0.13 SECS, INTEGRAL =      3.01 TIME LEFT: 172796.95
 STEP:  19 TIME =     0.25 SECS, INTEGRAL =      3.26 TIME LEFT: 172796.70
 STEP:  20 TIME =     0.15 SECS, INTEGRAL =      3.41 TIME LEFT: 172796.55
 STEP:  21 TIME =     0.15 SECS, INTEGRAL =      3.55 TIME LEFT: 172796.41
 STEP:  22                       INTEGRAL =      3.55 TIME LEFT: 172796.41
 STEP:  23                       INTEGRAL =      3.55 TIME LEFT: 172796.41
 STEP:  24                       INTEGRAL =      3.55 TIME LEFT: 172796.41
 STEP:  25                       INTEGRAL =      3.55 TIME LEFT: 172796.41
 STEP:  26                       INTEGRAL =      3.55 TIME LEFT: 172796.41
 STEP:  27                       INTEGRAL =      3.55 TIME LEFT: 172796.41

(To convert to Hartree/Bohr^2, multiply by (10^(-21) x N x a0^2)/(4.184 x 627.51) =  0.0642)


           FORCE MATRIX IN MILLIDYNES/ANGSTROM


                  C  1       C  2       C  3       H  4       H  5      Cl  6
 ------------------------------------------------------------------------------
     C    1  12.144318
     C    2   3.847543  12.144318
     C    3   3.970701   3.971077  11.342472
     H    4   0.580195   3.470855   0.591965   4.316888
     H    5   0.569811   3.476693   0.602069   0.450508   4.323573
    Cl    6   0.553050   0.553153   2.515919   0.026063   0.043563   3.881191
     H    7   0.540844   0.540760   3.430695   0.041027   0.019665   0.642666
     H    8   3.476744   0.569673   0.601970   0.047272   0.025577   0.043490
     H    9   3.470840   0.580062   0.591753   0.025490   0.047195   0.025989


                  H  7       H  8       H  9
 ------------------------------------------
     H    7   4.287406
     H    8   0.019663   4.323573
     H    9   0.040993   0.450508   4.316888


          HEAT OF FORMATION =       5.188350 KCALS/MOLE

          ZERO POINT ENERGY      42.184 KCAL/MOL


           NORMAL COORDINATE ANALYSIS (Total motion = 1 Angstrom)


   Root No.       1         2         3         4         5         6         7         8

                 1 A"      1 A'      2 A'      3 A'      2 A"      4 A'      3 A"      4 A"  

                 308.4     334.5     668.6     822.6     876.1     943.0     946.6    1005.1
  
           1    0.0082    0.0023    0.0108   -0.0006    0.0098    0.1111   -0.0478    0.0115
           2    0.0448   -0.0571   -0.0343   -0.0017    0.0163   -0.0509   -0.0784    0.0240
           3   -0.0576    0.0540    0.0206    0.0107   -0.0088   -0.0081   -0.0001    0.0113
           4    0.0082   -0.0023   -0.0108    0.0006    0.0098   -0.1111   -0.0478    0.0115
           5   -0.0448   -0.0571   -0.0342   -0.0017   -0.0163   -0.0508    0.0784   -0.0240
           6    0.0576    0.0539    0.0206    0.0107    0.0088   -0.0081    0.0001   -0.0113
           7    0.0805   -0.0000   -0.0000   -0.0000    0.0004    0.0000    0.0873   -0.0748
           8   -0.0000   -0.0499   -0.0092   -0.0025   -0.0000    0.1353   -0.0000    0.0000
           9   -0.0000   -0.0766    0.1138    0.0300    0.0000   -0.0145   -0.0000    0.0000
          10    0.0635   -0.0087    0.0258   -0.1925    0.0242   -0.1126    0.0267    0.1236
          11   -0.0916   -0.1677    0.1216   -0.0766    0.1556   -0.0934    0.1755    0.1093
          12    0.1112    0.0929   -0.0183   -0.0951   -0.0551   -0.0014   -0.0024    0.0204
          13   -0.0890    0.0024   -0.0442    0.1938   -0.0261   -0.1014   -0.0800   -0.0524
          14   -0.0628    0.0570   -0.2070    0.0640   -0.2231   -0.0294   -0.0290   -0.0373
          15    0.1138    0.0922   -0.0183   -0.1015   -0.0516    0.0013   -0.0064    0.0220
          16   -0.0345    0.0000    0.0000    0.0000   -0.0020   -0.0000    0.0001    0.0022
          17    0.0000    0.0630    0.0304    0.0028    0.0000   -0.0073   -0.0000   -0.0000
          18   -0.0000   -0.0190   -0.0521   -0.0070    0.0000    0.0104   -0.0000    0.0000
          19    0.1083    0.0000   -0.0000   -0.0000   -0.1613    0.0000    0.2031    0.3967
          20   -0.0000   -0.0388    0.0279   -0.0049    0.0000    0.1026   -0.0000   -0.0001
          21   -0.0000   -0.0754    0.0602    0.0285    0.0000   -0.0017   -0.0000   -0.0000
          22   -0.0890   -0.0023    0.0441   -0.1938   -0.0260    0.1014   -0.0800   -0.0524
          23    0.0629    0.0570   -0.2071    0.0641    0.2231   -0.0295    0.0290    0.0373
          24   -0.1138    0.0923   -0.0184   -0.1015    0.0516    0.0013    0.0064   -0.0220
          25    0.0635    0.0087   -0.0257    0.1925    0.0242    0.1125    0.0266    0.1236
          26    0.0915   -0.1677    0.1216   -0.0766   -0.1556   -0.0934   -0.1755   -0.1093
          27   -0.1112    0.0929   -0.0183   -0.0951    0.0551   -0.0014    0.0024   -0.0204


   Root No.       9        10        11        12        13        14        15        16

                 5 A'      6 A'      5 A"      6 A"      7 A'      7 A"      8 A'      9 A'  

                1047.8    1111.9    1118.2    1201.1    1239.0    1361.4    1364.9    1449.3
  
           1   -0.0005    0.0207   -0.0029    0.0260   -0.0080   -0.0235   -0.0044   -0.1581
           2   -0.0018   -0.0337    0.0013   -0.0437   -0.0098   -0.0112   -0.0050   -0.0914
           3   -0.0333    0.0019   -0.0603   -0.0029   -0.0209    0.0013    0.0003   -0.0006
           4    0.0005   -0.0207   -0.0029    0.0260    0.0080   -0.0235    0.0044    0.1581
           5   -0.0018   -0.0337   -0.0012    0.0437   -0.0098    0.0113   -0.0050   -0.0914
           6   -0.0332    0.0019    0.0603    0.0029   -0.0209   -0.0013    0.0003   -0.0006
           7   -0.0000    0.0000   -0.0106   -0.0281   -0.0000   -0.0046   -0.0000    0.0000
           8    0.0008    0.0029    0.0000    0.0000   -0.0248    0.0000   -0.0242    0.1874
           9    0.0642   -0.0006    0.0000    0.0000    0.0468    0.0000    0.0035   -0.0102
          10    0.0508    0.1158   -0.1478   -0.1037    0.0313    0.1598   -0.1641    0.0176
          11   -0.1486    0.1987    0.0427   -0.1680   -0.0650   -0.0948    0.0991   -0.0135
          12    0.0694   -0.0046   -0.0653   -0.0002    0.0175    0.1525   -0.1429   -0.0864
          13   -0.0463    0.1215    0.1780   -0.0923    0.0073    0.1514   -0.1592    0.0227
          14    0.1586    0.1876    0.0005   -0.1720    0.0567   -0.0920    0.0988   -0.0134
          15    0.0690   -0.0075   -0.0744    0.0024    0.0098   -0.1464    0.1387    0.0790
          16    0.0000   -0.0000   -0.0004    0.0006   -0.0000   -0.0001    0.0000   -0.0000
          17    0.0028    0.0001   -0.0000   -0.0000    0.0017    0.0000    0.0004   -0.0021
          18   -0.0108   -0.0005   -0.0000    0.0000    0.0079   -0.0000   -0.0007    0.0024
          19   -0.0000   -0.0000    0.1482    0.0840    0.0001   -0.0027    0.0000   -0.0000
          20   -0.0869   -0.0094   -0.0000   -0.0000    0.4879    0.0000   -0.0018    0.0722
          21    0.1302    0.0031   -0.0000   -0.0000   -0.3917   -0.0000   -0.0170    0.0676
          22    0.0463   -0.1214    0.1780   -0.0922   -0.0073    0.1515    0.1592   -0.0227
          23    0.1586    0.1877   -0.0006    0.1720    0.0567    0.0920    0.0988   -0.0135
          24    0.0689   -0.0075    0.0744   -0.0024    0.0098    0.1464    0.1387    0.0790
          25   -0.0508   -0.1158   -0.1478   -0.1037   -0.0314    0.1598    0.1641   -0.0176
          26   -0.1486    0.1988   -0.0427    0.1681   -0.0650    0.0948    0.0990   -0.0136
          27    0.0694   -0.0046    0.0653    0.0002    0.0175   -0.1525   -0.1429   -0.0865


   Root No.      17        18        19        20        21

                 8 A"     10 A'     11 A'     12 A'      9 A"  

                2696.3    2712.9    2735.4    2780.3    2785.1
  
           1    0.0003    0.0006    0.0009    0.0155    0.0190
           2    0.0006   -0.0001   -0.0013    0.0107    0.0093
           3    0.0274    0.0221   -0.0165   -0.0005   -0.0006
           4    0.0003   -0.0006   -0.0009   -0.0155    0.0190
           5   -0.0006   -0.0001   -0.0013    0.0108   -0.0093
           6   -0.0274    0.0221   -0.0165   -0.0005    0.0006
           7   -0.0001   -0.0000   -0.0000    0.0000    0.0031
           8    0.0000   -0.0110   -0.0207    0.0033   -0.0000
           9   -0.0000   -0.0107   -0.0250    0.0005   -0.0000
          10   -0.1306    0.1030   -0.0666    0.1145   -0.1177
          11    0.0800   -0.0605    0.0418   -0.0707    0.0705
          12    0.1864   -0.1455    0.0909   -0.1871    0.1882
          13    0.1269   -0.0959    0.0743    0.1213   -0.1255
          14   -0.0722    0.0532   -0.0412   -0.0690    0.0691
          15    0.1784   -0.1316    0.1036    0.1945   -0.1967
          16    0.0001    0.0000    0.0000   -0.0000   -0.0000
          17   -0.0000    0.0002    0.0000   -0.0001   -0.0000
          18   -0.0000   -0.0004   -0.0006    0.0001   -0.0000
          19   -0.0015    0.0000    0.0000   -0.0000   -0.0022
          20    0.0000    0.1415    0.2757   -0.0139    0.0000
          21   -0.0000    0.1695    0.3239   -0.0131   -0.0000
          22    0.1270    0.0960   -0.0743   -0.1213   -0.1255
          23    0.0722    0.0531   -0.0412   -0.0689   -0.0691
          24   -0.1784   -0.1316    0.1036    0.1945    0.1967
          25   -0.1306   -0.1030    0.0666   -0.1145   -0.1177
          26   -0.0799   -0.0605    0.0418   -0.0707   -0.0705
          27   -0.1864   -0.1455    0.0909   -0.1870   -0.1882


           MASS-WEIGHTED COORDINATE ANALYSIS (NORMAL COORDINATES)


   Root No.       1         2         3         4         5         6         7         8

                 1 A"      1 A'      2 A'      3 A'      2 A"      4 A'      3 A"      4 A"  

                 308.4     334.5     668.6     822.6     876.1     943.0     946.6    1005.1
  
           1    0.0474    0.0111    0.0556   -0.0041    0.0756    0.4722   -0.2577    0.0714
           2    0.2581   -0.2778   -0.1761   -0.0123    0.1263   -0.2163   -0.4221    0.1490
           3   -0.3321    0.2625    0.1057    0.0778   -0.0681   -0.0342   -0.0003    0.0704
           4    0.0473   -0.0112   -0.0556    0.0041    0.0756   -0.4723   -0.2576    0.0713
           5   -0.2581   -0.2778   -0.1761   -0.0123   -0.1263   -0.2161    0.4222   -0.1490
           6    0.3322    0.2624    0.1058    0.0778    0.0681   -0.0343    0.0004   -0.0704
           7    0.4643   -0.0000   -0.0000   -0.0000    0.0028    0.0001    0.4705   -0.4647
           8   -0.0001   -0.2430   -0.0476   -0.0182   -0.0000    0.5753   -0.0001    0.0001
           9   -0.0000   -0.3725    0.5854    0.2186    0.0000   -0.0617   -0.0000    0.0000
          10    0.1060   -0.0123    0.0384   -0.4065    0.0544   -0.1386    0.0417    0.2225
          11   -0.1529   -0.2364    0.1812   -0.1617    0.3492   -0.1150    0.2739    0.1967
          12    0.1857    0.1309   -0.0273   -0.2008   -0.1237   -0.0017   -0.0038    0.0367
          13   -0.1487    0.0033   -0.0658    0.4092   -0.0585   -0.1248   -0.1249   -0.0944
          14   -0.1049    0.0804   -0.3084    0.1351   -0.5008   -0.0363   -0.0453   -0.0672
          15    0.1901    0.1300   -0.0273   -0.2142   -0.1158    0.0016   -0.0099    0.0397
          16   -0.3415    0.0001    0.0001    0.0000   -0.0272   -0.0000    0.0007    0.0238
          17    0.0000    0.5266    0.2686    0.0355    0.0000   -0.0535   -0.0000   -0.0000
          18   -0.0000   -0.1587   -0.4605   -0.0880    0.0000    0.0762   -0.0000    0.0000
          19    0.1808    0.0000   -0.0000   -0.0000   -0.3620    0.0000    0.3170    0.7141
          20   -0.0000   -0.0546    0.0415   -0.0103    0.0001    0.1263   -0.0001   -0.0001
          21   -0.0000   -0.1063    0.0897    0.0603    0.0000   -0.0021   -0.0000   -0.0000
          22   -0.1486   -0.0033    0.0656   -0.4092   -0.0583    0.1248   -0.1248   -0.0943
          23    0.1050    0.0804   -0.3085    0.1353    0.5008   -0.0363    0.0453    0.0672
          24   -0.1901    0.1300   -0.0273   -0.2142    0.1158    0.0016    0.0099   -0.0397
          25    0.1061    0.0122   -0.0383    0.4064    0.0542    0.1386    0.0416    0.2224
          26    0.1529   -0.2364    0.1812   -0.1618   -0.3492   -0.1150   -0.2739   -0.1968
          27   -0.1857    0.1309   -0.0273   -0.2008    0.1237   -0.0017    0.0038   -0.0367


   Root No.       9        10        11        12        13        14        15        16

                 5 A'      6 A'      5 A"      6 A"      7 A'      7 A"      8 A'      9 A'  

                1047.8    1111.9    1118.2    1201.1    1239.0    1361.4    1364.9    1449.3
  
           1   -0.0036    0.1449   -0.0205    0.1863   -0.0406   -0.1665   -0.0315   -0.4874
           2   -0.0128   -0.2356    0.0088   -0.3130   -0.0499   -0.0796   -0.0360   -0.2816
           3   -0.2407    0.0134   -0.4243   -0.0209   -0.1063    0.0090    0.0020   -0.0020
           4    0.0036   -0.1450   -0.0205    0.1864    0.0406   -0.1665    0.0315    0.4874
           5   -0.0128   -0.2355   -0.0088    0.3129   -0.0499    0.0797   -0.0360   -0.2817
           6   -0.2406    0.0134    0.4243    0.0209   -0.1063   -0.0090    0.0020   -0.0019
           7   -0.0000    0.0000   -0.0747   -0.2010   -0.0000   -0.0323   -0.0000    0.0001
           8    0.0060    0.0203    0.0000    0.0000   -0.1266    0.0000   -0.1733    0.5775
           9    0.4646   -0.0039    0.0000    0.0000    0.2385    0.0000    0.0252   -0.0315
          10    0.1065    0.2348   -0.3014   -0.2151    0.0462    0.3277   -0.3410    0.0157
          11   -0.3116    0.4028    0.0872   -0.3484   -0.0960   -0.1945    0.2059   -0.0121
          12    0.1455   -0.0093   -0.1331   -0.0003    0.0259    0.3129   -0.2970   -0.0772
          13   -0.0970    0.2462    0.3630   -0.1914    0.0108    0.3106   -0.3308    0.0203
          14    0.3326    0.3803    0.0011   -0.3567    0.0837   -0.1887    0.2054   -0.0120
          15    0.1446   -0.0152   -0.1518    0.0050    0.0144   -0.3003    0.2883    0.0705
          16    0.0000   -0.0000   -0.0043    0.0077   -0.0000   -0.0017    0.0000   -0.0000
          17    0.0350    0.0015   -0.0000   -0.0000    0.0145    0.0000    0.0048   -0.0110
          18   -0.1341   -0.0061   -0.0000    0.0000    0.0688   -0.0000   -0.0081    0.0126
          19   -0.0000   -0.0000    0.3022    0.1741    0.0001   -0.0055    0.0000   -0.0000
          20   -0.1821   -0.0191   -0.0001   -0.0000    0.7201    0.0000   -0.0038    0.0645
          21    0.2730    0.0063   -0.0000   -0.0000   -0.5780   -0.0000   -0.0354    0.0603
          22    0.0972   -0.2460    0.3630   -0.1912   -0.0108    0.3106    0.3309   -0.0203
          23    0.3326    0.3804   -0.0012    0.3567    0.0837    0.1886    0.2053   -0.0120
          24    0.1446   -0.0152    0.1518   -0.0050    0.0144    0.3003    0.2884    0.0705
          25   -0.1066   -0.2346   -0.3015   -0.2150   -0.0463    0.3277    0.3411   -0.0157
          26   -0.3115    0.4029   -0.0871    0.3485   -0.0960    0.1944    0.2058   -0.0121
          27    0.1455   -0.0093    0.1331    0.0003    0.0259   -0.3129   -0.2970   -0.0772


   Root No.      17        18        19        20        21

                 8 A"     10 A'     11 A'     12 A'      9 A"  

                2696.3    2712.9    2735.4    2780.3    2785.1
  
           1    0.0021    0.0044    0.0058    0.1117    0.1343
           2    0.0040   -0.0006   -0.0088    0.0774    0.0656
           3    0.1931    0.1737   -0.1106   -0.0037   -0.0041
           4    0.0021   -0.0044   -0.0058   -0.1116    0.1343
           5   -0.0040   -0.0005   -0.0088    0.0774   -0.0657
           6   -0.1931    0.1737   -0.1105   -0.0037    0.0041
           7   -0.0004   -0.0000   -0.0000    0.0000    0.0220
           8    0.0000   -0.0862   -0.1391    0.0239   -0.0000
           9   -0.0000   -0.0842   -0.1680    0.0033   -0.0000
          10   -0.2662    0.2346   -0.1294    0.2388   -0.2414
          11    0.1630   -0.1378    0.0813   -0.1475    0.1447
          12    0.3800   -0.3314    0.1767   -0.3902    0.3860
          13    0.2588   -0.2185    0.1443    0.2531   -0.2575
          14   -0.1472    0.1211   -0.0800   -0.1439    0.1418
          15    0.3637   -0.2998    0.2013    0.4058   -0.4035
          16    0.0007    0.0000    0.0000   -0.0000   -0.0001
          17   -0.0000    0.0022    0.0004   -0.0009   -0.0000
          18   -0.0000   -0.0055   -0.0071    0.0017   -0.0000
          19   -0.0032    0.0001    0.0001   -0.0000   -0.0046
          20    0.0000    0.3221    0.5357   -0.0290    0.0000
          21   -0.0000    0.3860    0.6294   -0.0272   -0.0000
          22    0.2589    0.2185   -0.1443   -0.2531   -0.2575
          23    0.1471    0.1210   -0.0800   -0.1438   -0.1417
          24   -0.3637   -0.2998    0.2013    0.4058    0.4035
          25   -0.2662   -0.2347    0.1294   -0.2388   -0.2414
          26   -0.1629   -0.1378    0.0812   -0.1474   -0.1446
          27   -0.3800   -0.3314    0.1767   -0.3902   -0.3860


          DESCRIPTION OF VIBRATIONS


 VIBRATION          1    1A"         ATOM PAIR     ENERGY CONTRIBUTION    RADIAL
 FREQUENCY           308.41         C 1 -- C 2         +21.0% (190.2%)      0.0%
 TRANSITION DIPOLE   0.0963         C 2 -- C 3         +14.3% (157.0%)      0.0%
 TRAVEL (Ang.)       0.3455         C 1 -- C 3         +14.3% (157.0%)      0.1%
 REDUCED MASS        1.8319         C 2 -- H 4         +10.5% (134.2%)     38.2%
 EFFECTIVE MASS     32.1584         C 1 -- H 9         +10.5% (134.2%)     38.2%
 FORCE CONSTANT      0.1027

 VIBRATION          2    1A'         ATOM PAIR     ENERGY CONTRIBUTION    RADIAL
 FREQUENCY           334.49         C 1 -- C 3         +17.9% (160.3%)      0.1%
 TRANSITION DIPOLE   0.1204         C 2 -- C 3         +17.9% (160.3%)      0.1%
 TRAVEL (Ang.)       0.2180         C 1 -- C 2         +13.4% (139.0%)    100.0%
 REDUCED MASS        4.2403         C 3 -- Cl6         +13.2% (137.7%)      7.6%
 EFFECTIVE MASS     33.4683
 FORCE CONSTANT      0.2795

 VIBRATION          3    2A'         ATOM PAIR     ENERGY CONTRIBUTION    RADIAL
 FREQUENCY           668.60         C 3 -- Cl6         +27.2% ( 99.1%)     93.5%
 TRANSITION DIPOLE   0.7237         C 1 -- C 3         +17.7% ( 79.9%)      2.8%
 TRAVEL (Ang.)       0.1520         C 2 -- C 3         +17.7% ( 79.9%)      2.8%
 REDUCED MASS        4.3656         C 3 -- H 7         +12.2% ( 66.3%)     42.9%
 EFFECTIVE MASS     16.4734
 FORCE CONSTANT      1.1498

 VIBRATION          4    3A'         ATOM PAIR     ENERGY CONTRIBUTION    RADIAL
 FREQUENCY           822.62         C 1 -- H 8         +21.8% ( 63.3%)      2.1%
 TRANSITION DIPOLE   0.2061         C 2 -- H 5         +21.8% ( 63.3%)      2.1%
 TRAVEL (Ang.)       0.5749         C 1 -- H 9         +21.6% ( 63.0%)      1.8%
 REDUCED MASS        0.2480         C 2 -- H 4         +21.6% ( 63.0%)      1.8%
 EFFECTIVE MASS      1.9747
 FORCE CONSTANT      0.0989

 VIBRATION          5    2A"         ATOM PAIR     ENERGY CONTRIBUTION    RADIAL
 FREQUENCY           876.12         C 2 -- H 5         +22.9% ( 58.5%)      6.7%
 TRANSITION DIPOLE   0.1362         C 1 -- H 8         +22.9% ( 58.5%)      6.7%
 TRAVEL (Ang.)       0.5943         C 2 -- H 4         +17.3% ( 50.9%)      0.0%
 REDUCED MASS        0.2179         C 1 -- H 9         +17.3% ( 50.9%)      0.0%
 EFFECTIVE MASS      1.6782
 FORCE CONSTANT      0.0986

 VIBRATION          6    4A'         ATOM PAIR     ENERGY CONTRIBUTION    RADIAL
 FREQUENCY           942.99         C 1 -- C 2         +18.7% ( 83.7%)    100.0%
 TRANSITION DIPOLE   0.4551         C 2 -- C 3         +17.0% ( 79.9%)     23.4%
 TRAVEL (Ang.)       0.1515         C 1 -- C 3         +17.0% ( 79.9%)     23.4%
 REDUCED MASS        3.1155         C 3 -- Cl6         +13.1% ( 70.0%)     48.1%
 EFFECTIVE MASS     11.7567         C 3 -- H 7         +11.5% ( 65.5%)     27.0%
 FORCE CONSTANT      1.6323

 VIBRATION          7    3A"         ATOM PAIR     ENERGY CONTRIBUTION    RADIAL
 FREQUENCY           946.59         C 2 -- C 3         +17.4% ( 73.6%)     75.5%
 TRANSITION DIPOLE   0.5693         C 1 -- C 3         +17.4% ( 73.6%)     75.5%
 TRAVEL (Ang.)       0.1865         C 1 -- C 2         +16.7% ( 72.2%)      0.0%
 REDUCED MASS        2.0481         C 2 -- H 4         +10.1% ( 56.1%)     34.3%
 EFFECTIVE MASS      9.6657         C 1 -- H 9         +10.1% ( 56.1%)     34.3%
 FORCE CONSTANT      1.0812         C 2 -- H 5         +10.0% ( 56.0%)     15.2%
                            C 1 -- H 8         +10.0% ( 56.0%)     15.2%

 VIBRATION          8    4A"         ATOM PAIR     ENERGY CONTRIBUTION    RADIAL
 FREQUENCY          1005.07         C 3 -- H 7         +45.8% ( 85.2%)      0.0%
 TRANSITION DIPOLE   0.1920         C 2 -- C 3         +10.8% ( 41.4%)     50.5%
 TRAVEL (Ang.)       0.2787         C 1 -- C 3         +10.8% ( 41.4%)     50.5%
 REDUCED MASS        0.8639         C 2 -- H 4          +7.9% ( 35.5%)      8.7%
 EFFECTIVE MASS      3.7828
 FORCE CONSTANT      0.5142

 VIBRATION          9    5A'         ATOM PAIR     ENERGY CONTRIBUTION    RADIAL
 FREQUENCY          1047.76         C 1 -- C 3         +13.0% ( 47.6%)      0.1%
 TRANSITION DIPOLE   0.7192         C 2 -- C 3         +13.0% ( 47.6%)      0.1%
 TRAVEL (Ang.)       0.2950         C 1 -- H 8         +12.1% ( 45.9%)     10.1%
 REDUCED MASS        0.7394         C 2 -- H 5         +12.1% ( 45.9%)     10.1%
 EFFECTIVE MASS      4.8750         C 1 -- H 9         +11.5% ( 44.9%)     12.3%
 FORCE CONSTANT      0.4782         C 2 -- H 4         +11.5% ( 44.9%)     12.3%
                            C 3 -- H 7         +11.4% ( 44.6%)     99.1%
                            C 3 -- Cl6         +10.3% ( 42.5%)     76.8%

 VIBRATION         10    6A'         ATOM PAIR     ENERGY CONTRIBUTION    RADIAL
 FREQUENCY          1111.88         C 1 -- H 9         +22.4% ( 50.9%)      0.0%
 TRANSITION DIPOLE   0.5730         C 2 -- H 4         +22.4% ( 50.9%)      0.0%
 TRAVEL (Ang.)       0.4342         C 1 -- H 8         +21.4% ( 49.7%)      0.0%
 REDUCED MASS        0.3216         C 2 -- H 5         +21.4% ( 49.7%)      0.0%
 EFFECTIVE MASS      2.2185
 FORCE CONSTANT      0.2343

 VIBRATION         11    5A"         ATOM PAIR     ENERGY CONTRIBUTION    RADIAL
 FREQUENCY          1118.21         C 2 -- H 5         +16.9% ( 54.7%)     16.4%
 TRANSITION DIPOLE   0.1678         C 1 -- H 8         +16.9% ( 54.7%)     16.4%
 TRAVEL (Ang.)       0.2637         C 1 -- C 2         +16.9% ( 54.6%)      0.0%
 REDUCED MASS        0.8674         C 2 -- H 4         +14.7% ( 51.0%)     20.7%
 EFFECTIVE MASS      4.6336         C 1 -- H 9         +14.7% ( 51.0%)     20.7%
 FORCE CONSTANT      0.6390

 VIBRATION         12    6A"         ATOM PAIR     ENERGY CONTRIBUTION    RADIAL
 FREQUENCY          1201.14         C 1 -- H 9         +19.1% ( 46.8%)      0.0%
 TRANSITION DIPOLE   0.3311         C 2 -- H 4         +19.1% ( 46.8%)      0.0%
 TRAVEL (Ang.)       0.3175         C 1 -- H 8         +18.8% ( 46.4%)      0.0%
 REDUCED MASS        0.5569         C 2 -- H 5         +18.8% ( 46.4%)      0.0%
 EFFECTIVE MASS      3.1518
 FORCE CONSTANT      0.4734

 VIBRATION         13    7A'         ATOM PAIR     ENERGY CONTRIBUTION    RADIAL
 FREQUENCY          1238.98         C 3 -- H 7         +80.5% ( 94.5%)      0.8%
 TRANSITION DIPOLE   0.3075         C 1 -- C 3          +4.3% ( 21.7%)      1.7%
 TRAVEL (Ang.)       0.2603         C 2 -- C 3          +4.3% ( 21.7%)      1.7%
 REDUCED MASS        0.8035         C 3 -- Cl6          +3.2% ( 18.8%)     98.0%
 EFFECTIVE MASS      1.8678
 FORCE CONSTANT      0.7267

 VIBRATION         14    7A"         ATOM PAIR     ENERGY CONTRIBUTION    RADIAL
 FREQUENCY          1361.35         C 1 -- H 9         +24.0% ( 45.4%)      1.0%
 TRANSITION DIPOLE   0.5778         C 2 -- H 4         +24.0% ( 45.4%)      1.0%
 TRAVEL (Ang.)       0.4481         C 1 -- H 8         +21.4% ( 42.9%)      1.6%
 REDUCED MASS        0.2467         C 2 -- H 5         +21.4% ( 42.9%)      1.6%
 EFFECTIVE MASS      1.5258
 FORCE CONSTANT      0.2694

 VIBRATION         15    8A'         ATOM PAIR     ENERGY CONTRIBUTION    RADIAL
 FREQUENCY          1364.91         C 2 -- H 4         +23.3% ( 42.0%)      0.1%
 TRANSITION DIPOLE   0.2973         C 1 -- H 9         +23.3% ( 42.0%)      0.1%
 TRAVEL (Ang.)       0.4486         C 1 -- H 8         +21.5% ( 40.3%)      0.1%
 REDUCED MASS        0.2454         C 2 -- H 5         +21.5% ( 40.3%)      0.1%
 EFFECTIVE MASS      1.2790
 FORCE CONSTANT      0.2694

 VIBRATION         16    9A'         ATOM PAIR     ENERGY CONTRIBUTION    RADIAL
 FREQUENCY          1449.26         C 2 -- C 3         +19.9% ( 74.3%)     99.9%
 TRANSITION DIPOLE   1.0498         C 1 -- C 3         +19.9% ( 74.3%)     99.9%
 TRAVEL (Ang.)       0.1113         C 1 -- C 2         +19.6% ( 73.7%)    100.0%
 REDUCED MASS        3.7556         C 3 -- Cl6          +7.4% ( 45.2%)     34.3%
 EFFECTIVE MASS     12.1076
 FORCE CONSTANT      4.6475

 VIBRATION         17    8A"         ATOM PAIR     ENERGY CONTRIBUTION    RADIAL
 FREQUENCY          2696.28         C 2 -- H 4         +25.6% ( 52.5%)     98.7%
 TRANSITION DIPOLE   0.0525         C 1 -- H 9         +25.6% ( 52.5%)     98.7%
 TRAVEL (Ang.)       0.3165         C 1 -- H 8         +23.5% ( 50.4%)     98.4%
 REDUCED MASS        0.2497         C 2 -- H 5         +23.5% ( 50.4%)     98.4%
 EFFECTIVE MASS      1.4411
 FORCE CONSTANT      1.0693

 VIBRATION         18   10A'         ATOM PAIR     ENERGY CONTRIBUTION    RADIAL
 FREQUENCY          2712.90         C 3 -- H 7         +25.5% ( 52.0%)     99.9%
 TRANSITION DIPOLE   0.6876         C 2 -- H 4         +19.7% ( 45.6%)     98.6%
 TRAVEL (Ang.)       0.3493         C 1 -- H 9         +19.7% ( 45.6%)     98.6%
 REDUCED MASS        0.2037         C 2 -- H 5         +16.5% ( 41.8%)     98.2%
 EFFECTIVE MASS      1.4389         C 1 -- H 8         +16.5% ( 41.8%)     98.2%
 FORCE CONSTANT      0.8834

 VIBRATION         19   11A'         ATOM PAIR     ENERGY CONTRIBUTION    RADIAL
 FREQUENCY          2735.40         C 3 -- H 7         +70.6% ( 85.3%)     99.9%
 TRANSITION DIPOLE   1.1901         C 1 -- H 8          +7.4% ( 27.6%)     98.3%
 TRAVEL (Ang.)       0.2185         C 2 -- H 5          +7.4% ( 27.6%)     98.3%
 REDUCED MASS        0.5164         C 1 -- H 9          +6.1% ( 25.0%)     98.2%
 EFFECTIVE MASS      1.4163
 FORCE CONSTANT      2.2766

 VIBRATION         20   12A'         ATOM PAIR     ENERGY CONTRIBUTION    RADIAL
 FREQUENCY          2780.27         C 1 -- H 8         +25.6% ( 50.0%)     96.3%
 TRANSITION DIPOLE   0.6351         C 2 -- H 5         +25.6% ( 50.0%)     96.3%
 TRAVEL (Ang.)       0.3171         C 1 -- H 9         +23.6% ( 48.0%)     95.8%
 REDUCED MASS        0.2412         C 2 -- H 4         +23.6% ( 48.0%)     95.8%
 EFFECTIVE MASS      1.2401
 FORCE CONSTANT      1.0985

 VIBRATION         21    9A"         ATOM PAIR     ENERGY CONTRIBUTION    RADIAL
 FREQUENCY          2785.08         C 1 -- H 8         +25.8% ( 50.1%)     95.5%
 TRANSITION DIPOLE   0.8953         C 2 -- H 5         +25.8% ( 50.1%)     95.5%
 TRAVEL (Ang.)       0.3162         C 2 -- H 4         +23.5% ( 47.9%)     94.8%
 REDUCED MASS        0.2422         C 1 -- H 9         +23.5% ( 47.9%)     94.8%
 EFFECTIVE MASS      1.2591
 FORCE CONSTANT      1.1067

      SYMMETRY NUMBER FOR POINT-GROUP Cs  =  1


          SYSTEM IS A GROUND STATE



 chlorcyklopropan


          MOLECULE IS NOT LINEAR

          THERE ARE 21 GENUINE VIBRATIONS IN THIS SYSTEM
          THIS THERMODYNAMICS CALCULATION IS LIMITED TO
          MOLECULES WHICH HAVE NO INTERNAL ROTATIONS




                    CALCULATED THERMODYNAMIC PROPERTIES
                                          *
   TEMP. (K)   PARTITION FUNCTION   H.O.F.    ENTHALPY  HEAT CAPACITY ENTROPY
                                   KCAL/MOL   CAL/MOLE    CAL/K/MOL  CAL/K/MOL


 298.00  VIB.     0.1832D+01                   817.6570     8.1299     3.9465
         ROT.     0.5658D+05                   888.2803     2.9808    24.7276
         INT.     0.1036D+06                  1705.9373    11.1107    28.6741
         TRA.     0.6472D+27                  1480.4672     4.9680    38.9183
         TOT.                        5.188    3186.4044    16.0787    67.5924

 200.00  VIB.     0.1255D+01                   242.4587     3.8067     1.6632
         ROT.     0.3111D+05                   596.1613     2.9808    23.5390
         INT.     0.3903D+05                   838.6199     6.7875    25.2022
         TRA.     0.3558D+27                   993.6021     4.9680    36.9371
         TOT.                        3.834    1832.2221    11.7555    62.1393

 210.00  VIB.     0.1295D+01                   282.3971     4.1841     1.8580
         ROT.     0.3347D+05                   625.9693     2.9808    23.6844
         INT.     0.4334D+05                   908.3664     7.1649    25.5424
         TRA.     0.3829D+27                  1043.2822     4.9680    37.1795
         TOT.                        3.954    1951.6487    12.1329    62.7219

 220.00  VIB.     0.1338D+01                   326.2011     4.5797     2.0617
         ROT.     0.3589D+05                   655.7774     2.9808    23.8231
         INT.     0.4803D+05                   981.9785     7.5605    25.8848
         TRA.     0.4105D+27                  1092.9623     4.9680    37.4106
         TOT.                        4.077    2074.9408    12.5285    63.2954

 230.00  VIB.     0.1386D+01                   374.0484     4.9925     2.2743
         ROT.     0.3837D+05                   685.5855     2.9808    23.9556
         INT.     0.5316D+05                  1059.6339     7.9734    26.2299
         TRA.     0.4388D+27                  1142.6424     4.9680    37.6315
         TOT.                        4.204    2202.2764    12.9414    63.8614

 240.00  VIB.     0.1437D+01                   426.1050     5.4213     2.4958
         ROT.     0.4089D+05                   715.3935     2.9808    24.0824
         INT.     0.5876D+05                  1141.4985     8.4021    26.5783
         TRA.     0.4678D+27                  1192.3226     4.9680    37.8429
         TOT.                        4.336    2333.8211    13.3701    64.4212

 250.00  VIB.     0.1493D+01                   482.5215     5.8642     2.7261
         ROT.     0.4348D+05                   745.2016     2.9808    24.2041
         INT.     0.6490D+05                  1227.7231     8.8451    26.9302
         TRA.     0.4973D+27                  1242.0027     4.9680    38.0457
         TOT.                        4.472    2469.7257    13.8131    64.9759

 260.00  VIB.     0.1553D+01                   543.4314     6.3196     2.9649
         ROT.     0.4611D+05                   775.0097     2.9808    24.3210
         INT.     0.7161D+05                  1318.4410     9.3005    27.2859
         TRA.     0.5274D+27                  1291.6828     4.9680    38.2406
         TOT.                        4.612    2610.1238    14.2685    65.5265

 270.00  VIB.     0.1618D+01                   608.9495     6.7856     3.2121
         ROT.     0.4880D+05                   804.8177     2.9808    24.4335
         INT.     0.7897D+05                  1413.7672     9.7664    27.6456
         TRA.     0.5582D+27                  1341.3629     4.9680    38.4281
         TOT.                        4.757    2755.1301    14.7344    66.0737

 280.00  VIB.     0.1689D+01                   679.1714     7.2601     3.4674
         ROT.     0.5153D+05                   834.6258     2.9808    24.5419
         INT.     0.8705D+05                  1513.7972    10.2409    28.0094
         TRA.     0.5894D+27                  1391.0430     4.9680    38.6087
         TOT.                        4.907    2904.8402    15.2089    66.6181

 290.00  VIB.     0.1766D+01                   754.1737     7.7413     3.7306
         ROT.     0.5432D+05                   864.4339     2.9808    24.6465
         INT.     0.9592D+05                  1618.6076    10.7221    28.3771
         TRA.     0.6213D+27                  1440.7231     4.9680    38.7831
         TOT.                        5.061    3059.3307    15.6901    67.1602

 300.00  VIB.     0.1849D+01                   834.0143     8.2275     4.0012
         ROT.     0.5715D+05                   894.2419     2.9808    24.7476
         INT.     0.1057D+06                  1728.2562    11.2083    28.7488
         TRA.     0.6537D+27                  1490.4032     4.9680    38.9515
         TOT.                        5.221    3218.6594    16.1763    67.7003

 310.00  VIB.     0.1938D+01                   918.7334     8.7168     4.2790
         ROT.     0.6003D+05                   924.0500     2.9808    24.8453
         INT.     0.1164D+06                  1842.7834    11.6976    29.1243
         TRA.     0.6867D+27                  1540.0833     4.9680    39.1144
         TOT.                        5.385    3382.8667    16.6656    68.2387

 320.00  VIB.     0.2035D+01                  1008.3547     9.2076     4.5635
         ROT.     0.6296D+05                   953.8580     2.9808    24.9400
         INT.     0.1282D+06                  1962.2127    12.1884    29.5034
         TRA.     0.7202D+27                  1589.7634     4.9680    39.2721
         TOT.                        5.554    3551.9761    17.1564    68.7755

 330.00  VIB.     0.2140D+01                  1102.8864     9.6986     4.8543
         ROT.     0.6594D+05                   983.6661     2.9808    25.0317
         INT.     0.1411D+06                  2086.5525    12.6794    29.8860
         TRA.     0.7542D+27                  1639.4435     4.9680    39.4250
         TOT.                        5.728    3725.9961    17.6474    69.3110

 340.00  VIB.     0.2254D+01                  1202.3233    10.1884     5.1511
         ROT.     0.6896D+05                  1013.4742     2.9808    25.1207
         INT.     0.1554D+06                  2215.7975    13.1692    30.2718
         TRA.     0.7887D+27                  1689.1236     4.9680    39.5733
         TOT.                        5.907    3904.9211    18.1373    69.8451

 350.00  VIB.     0.2377D+01                  1306.6474    10.6759     5.4535
         ROT.     0.7202D+05                  1043.2822     2.9808    25.2071
         INT.     0.1712D+06                  2349.9296    13.6567    30.6606
         TRA.     0.8238D+27                  1738.8037     4.9680    39.7173
         TOT.                        6.091    4088.7334    18.6247    70.3779

 360.00  VIB.     0.2509D+01                  1415.8299    11.1600     5.7610
         ROT.     0.7513D+05                  1073.0903     2.9808    25.2910
         INT.     0.1885D+06                  2488.9202    14.1408    31.0521
         TRA.     0.8593D+27                  1788.4838     4.9680    39.8573
         TOT.                        6.279    4277.4040    19.1088    70.9094

 370.00  VIB.     0.2653D+01                  1529.8323    11.6397     6.0734
         ROT.     0.7828D+05                  1102.8984     2.9808    25.3727
         INT.     0.2077D+06                  2632.7307    14.6206    31.4461
         TRA.     0.8954D+27                  1838.1639     4.9680    39.9934
         TOT.                        6.473    4470.8946    19.5886    71.4395

 380.00  VIB.     0.2808D+01                  1648.6080    12.1145     6.3901
         ROT.     0.8147D+05                  1132.7064     2.9808    25.4522
         INT.     0.2288D+06                  2781.3144    15.0953    31.8423
         TRA.     0.9319D+27                  1887.8440     4.9680    40.1259
         TOT.                        6.671    4669.1585    20.0633    71.9682

 390.00  VIB.     0.2976D+01                  1772.1033    12.5836     6.7108
         ROT.     0.8471D+05                  1162.5145     2.9808    25.5296
         INT.     0.2521D+06                  2934.6178    15.5644    32.2405
         TRA.     0.9690D+27                  1937.5242     4.9680    40.2549
         TOT.                        6.874    4872.1420    20.5324    72.4954

 400.00  VIB.     0.3157D+01                  1900.2586    13.0464     7.0353
         ROT.     0.8799D+05                  1192.3226     2.9808    25.6051
         INT.     0.2778D+06                  3092.5811    16.0272    32.6404
         TRA.     0.1006D+28                  1987.2043     4.9680    40.3807
         TOT.                        7.082    5079.7854    20.9952    73.0211

   *: NOTE: HEATS OF FORMATION ARE RELATIVE TO THE
            ELEMENTS IN THEIR STANDARD STATE AT 298K
              (=  Standard Enthalpy of Formation).

            Hvib:  Zero-point energy is not included.
                   frequencies of less than zero cm-1 are not included.
            Hrot = (3/2)RT
            Htra = (3/2)RT + pV = (5/2)RT

            Heat capacity is Cp, not Cv

          For more information, see: HTTP://OpenMOPAC.net/Manual/thermochemistry.html


           FORCE CONSTANT IN CARTESIAN COORDINATES (Millidynes/A)

    ATOM   CHEMICAL       X               Y               Z
   NUMBER   SYMBOL  FORCE CONSTANT  FORCE CONSTANT  FORCE CONSTANT

      1       C        8.046560        5.236258        6.573566
      2       C        8.044680        5.238138        6.573566
      3       C        3.595356        9.111183        5.627960
      4       H        1.664449        0.962544        2.894768
      5       H        1.690432        0.905949        2.907084
      6      Cl        0.257745        1.434027        2.844590
      7       H        0.514950        2.241367        2.778321
      8       H        1.690887        0.905454        2.907125
      9       H        1.665009        0.962024        2.894728

 **********************
 *                    *
 * JOB ENDED NORMALLY *
 *                    *
 **********************



 TOTAL JOB TIME:             6.84 SECONDS

 == MOPAC DONE ==
