 *******************************************************************************
 **                                                                           **
 **                              MOPAC v22.1.0                                **
 **                                                                           **
 *******************************************************************************
 **          Digital Object Identifier (DOI): 10.5281/zenodo.6511958          **
 **    Visit the DOI location for information on how to cite this program.    **
 *******************************************************************************

                              PM7 CALCULATION RESULTS

 *******************************************************************************
 *  CALCULATION DONE:                                Mon Jan 22 19:52:38 2024  *
 *  PM7        - The PM7 Hamiltonian to be used
 *  SINGLET    - SPIN STATE DEFINED AS A SINGLET
 *
 *
 *
 *                 CHARGE ON SYSTEM = 0
 *
 *
 *
 *  PRECISE    - TIGHTER CRITERIA TO BE USED
 *  T=         - A TIME OF 172800.0 SECONDS REQUESTED
 *  DUMP=N     - RESTART FILE WRITTEN EVERY 7200.0 SECONDS REQUESTED
 *  LARGE      - EXPANDED OUTPUT TO BE PRINTED
 *******************************************************************************
 PRECISE LARGE CHARGE=0 SINGLET  PM7
 cyklopropan

   ATOM   CHEMICAL          X               Y               Z
  NUMBER   SYMBOL      (ANGSTROMS)     (ANGSTROMS)     (ANGSTROMS)
 
     1       C         -3.75569000  *   0.47401000  *  -0.01188000  *
     2       C         -2.76891000  *   1.62709000  *   0.00763000  *
     3       C         -2.26400000  *   0.19582000  *   0.02221000  *
     4       H         -2.41946000  *   2.04473000  *   0.97604000  *
     5       H         -2.37636000  *   2.04036000  *  -0.94603000  *
     6       H         -2.11136000  *  -0.33109000  *   0.98836000  *
     7       H         -2.06825000  *  -0.33546000  *  -0.93372000  *
     8       H         -4.27933000  *   0.58546000  *  -0.98540000  *
     9       H         -4.32244000  *   0.58983000  *   0.93667000  *
 


          CARTESIAN COORDINATES 

    NO.       ATOM           X           Y           Z

     1         C         -3.7557      0.4740     -0.0119
     2         C         -2.7689      1.6271      0.0076
     3         C         -2.2640      0.1958      0.0222
     4         H         -2.4195      2.0447      0.9760
     5         H         -2.3764      2.0404     -0.9460
     6         H         -2.1114     -0.3311      0.9884
     7         H         -2.0682     -0.3355     -0.9337
     8         H         -4.2793      0.5855     -0.9854
     9         H         -4.3224      0.5898      0.9367

 General Reference for PM7:
 "Optimization of Parameters for Semiempirical Methods VI: More Modifications to the 
 NDDO Approximations and Re-optimization of Parameters", J. J. P. Stewart, J. Mol. Mod., 1:32, 19 (2013)
 https://link.springer.com/article/10.1007/s00894-012-1667-x

           Empirical Formula: C3 H6  =     9 atoms



      MOLECULAR POINT GROUP   :   C3h 


 SINGLET STATE CALCULATION


      RHF CALCULATION, NO. OF DOUBLY OCCUPIED LEVELS = 9


          Geometry optimization using EF

          DIAGONAL MATRIX USED AS START HESSIAN

 CYCLE:     1 TIME:   0.016 TIME LEFT:  2.00D  GRAD.:   174.444 HEAT:  44.78076
 CYCLE:     2 TIME:   0.023 TIME LEFT:  2.00D  GRAD.:   107.769 HEAT:  24.98215
 CYCLE:     3 TIME:   0.008 TIME LEFT:  2.00D  GRAD.:    97.181 HEAT:  17.10418
 CYCLE:     4 TIME:   0.016 TIME LEFT:  2.00D  GRAD.:   109.893 HEAT:  16.52293
 CYCLE:     5 TIME:   0.008 TIME LEFT:  2.00D  GRAD.:    78.512 HEAT:  15.02235
 CYCLE:     6 TIME:   0.023 TIME LEFT:  2.00D  GRAD.:    52.925 HEAT:  13.11691
 CYCLE:     7 TIME:   0.016 TIME LEFT:  2.00D  GRAD.:    17.499 HEAT:  12.35785
 CYCLE:     8 TIME:   0.016 TIME LEFT:  2.00D  GRAD.:    13.594 HEAT:  12.22939
 CYCLE:     9 TIME:   0.016 TIME LEFT:  2.00D  GRAD.:    16.089 HEAT:  12.17548
 CYCLE:    10 TIME:   0.023 TIME LEFT:  2.00D  GRAD.:     8.671 HEAT:  12.08840
 CYCLE:    11 TIME:   0.008 TIME LEFT:  2.00D  GRAD.:     5.713 HEAT:  12.05722
 CYCLE:    12 TIME:   0.008 TIME LEFT:  2.00D  GRAD.:     3.003 HEAT:  12.03126
 CYCLE:    13 TIME:   0.031 TIME LEFT:  2.00D  GRAD.:     3.264 HEAT:  12.02667
 CYCLE:    14 TIME:   0.008 TIME LEFT:  2.00D  GRAD.:     1.080 HEAT:  12.01934
 CYCLE:    15 TIME:   0.016 TIME LEFT:  2.00D  GRAD.:     0.811 HEAT:  12.01811
 CYCLE:    16 TIME:   0.008 TIME LEFT:  2.00D  GRAD.:     0.697 HEAT:  12.01802
 CYCLE:    17 TIME:   0.008 TIME LEFT:  2.00D  GRAD.:     0.223 HEAT:  12.01772
 CYCLE:    18 TIME:   0.016 TIME LEFT:  2.00D  GRAD.:     0.167 HEAT:  12.01766
 CYCLE:    19 TIME:   0.008 TIME LEFT:  2.00D  GRAD.:     0.088 HEAT:  12.01763
 CYCLE:    20 TIME:   0.008 TIME LEFT:  2.00D  GRAD.:     0.062 HEAT:  12.01762
 CYCLE:    21 TIME:   0.016 TIME LEFT:  2.00D  GRAD.:     0.053 HEAT:  12.01761
 CYCLE:    22 TIME:   0.008 TIME LEFT:  2.00D  GRAD.:     0.034 HEAT:  12.01761

     GRADIENT =  0.03422 IS LESS THAN CUTOFF =  0.05000



 -------------------------------------------------------------------------------
 PRECISE LARGE CHARGE=0 SINGLET  PM7
 cyklopropan



     GEOMETRY OPTIMISED USING EIGENVECTOR FOLLOWING (EF).     
     SCF FIELD WAS ACHIEVED                                   


                              PM7 CALCULATION
                                                       MOPAC v22.1.0 Windows
                                                       Mon Jan 22 19:52:38 2024




          FINAL HEAT OF FORMATION =         12.01761 KCAL/MOL =      50.28166 KJ/MOL


          COSMO AREA              =         88.14 SQUARE ANGSTROMS
          COSMO VOLUME            =         70.51 CUBIC ANGSTROMS

          GRADIENT NORM           =          0.03422          =       0.01141 PER ATOM
          IONIZATION POTENTIAL    =         11.585850 EV
          HOMO LUMO ENERGIES (EV) =        -11.586  2.483
          NO. OF FILLED LEVELS    =          9
          MOLECULAR WEIGHT        =         42.0804         POINT GROUP:  D3h 

          MOLECULAR DIMENSIONS (Angstroms)

            Atom       Atom       Distance
            H     8    H     6     3.14080
            H     4    H     7     3.14029
            H     9    H     5     3.13973


          SCF CALCULATIONS        =         27
 
          WALL-CLOCK TIME         =      0.367 SECONDS
          COMPUTATION TIME        =      1.516 SECONDS




   ATOM   CHEMICAL          X               Y               Z
  NUMBER   SYMBOL      (ANGSTROMS)     (ANGSTROMS)     (ANGSTROMS)
 
     1       C         -3.78173641  *   0.58212549  *  -0.01271493  *
     2       C         -2.66231149  *   1.59559706  *   0.01044713  *
     3       C         -2.34458978  *   0.11920566  *   0.02024704  *
     4       H         -2.49163067  *   2.18916787  *   0.90360546  *
     5       H         -2.45169860  *   2.18593752  *  -0.87630764  *
     6       H         -1.94708281  *  -0.34022180  *   0.92031391  *
     7       H         -1.90755578  *  -0.34354604  *  -0.85958159  *
     8       H         -4.36962242  *   0.44954849  *  -0.91604295  *
     9       H         -4.40947961  *   0.45291562  *   0.86386640  *

                             CARTESIAN COORDINATES

   1    C       -3.781736413     0.582125485    -0.012714926
   2    C       -2.662311495     1.595597063     0.010447129
   3    C       -2.344589780     0.119205663     0.020247041
   4    H       -2.491630672     2.189167866     0.903605457
   5    H       -2.451698603     2.185937518    -0.876307645
   6    H       -1.947082814    -0.340221799     0.920313907
   7    H       -1.907555785    -0.343546036    -0.859581593
   8    H       -4.369622419     0.449548487    -0.916042955
   9    H       -4.409479606     0.452915616     0.863866397


           Empirical Formula: C3 H6  =     9 atoms



      MOLECULAR POINT GROUP   :   D3h 


                  EIGENVALUES  
 -30.14809 -20.86092 -20.86071 -17.02767 -15.76663 -12.48152 -12.48133 -11.58600
 -11.58585   2.48266   4.47675   4.47677   5.17737   6.10712   6.10728   6.41443
   6.41449   6.48137


              NET ATOMIC CHARGES AND DIPOLE CONTRIBUTIONS

  ATOM NO.   TYPE          CHARGE      No. of ELECS.   s-Pop       p-Pop       
    1          C          -0.306203        4.3062     1.04801     3.25819
    2          C          -0.306218        4.3062     1.04801     3.25821
    3          C          -0.306231        4.3062     1.04801     3.25822
    4          H           0.153108        0.8469     0.84689
    5          H           0.153109        0.8469     0.84689
    6          H           0.153111        0.8469     0.84689
    7          H           0.153109        0.8469     0.84689
    8          H           0.153107        0.8469     0.84689
    9          H           0.153108        0.8469     0.84689
 DIPOLE           X         Y         Z       TOTAL
 POINT-CHG.     0.000    -0.000    -0.000     0.000
 HYBRID         0.000    -0.000     0.000     0.000
 SUM            0.000    -0.000    -0.000     0.000


          ATOMIC ORBITAL ELECTRON POPULATIONS

     Atom    s        px        py        pz   
    1  C   1.04801   0.97815   1.10801   1.17203
    2  C   1.04801   1.10097   0.98514   1.17209
    3  C   1.04801   1.05019   1.03596   1.17207
    4  H   0.84689
    5  H   0.84689
    6  H   0.84689
    7  H   0.84689
    8  H   0.84689
    9  H   0.84689
 *******************************************************************************
 **                                                                           **
 **                              MOPAC v22.1.0                                **
 **                                                                           **
 *******************************************************************************
 **          Digital Object Identifier (DOI): 10.5281/zenodo.6511958          **
 **    Visit the DOI location for information on how to cite this program.    **
 *******************************************************************************

                              PM7 CALCULATION RESULTS

 *******************************************************************************
 *  CALCULATION DONE:                                Mon Jan 22 19:52:38 2024  *
 *  PM7        - The PM7 Hamiltonian to be used
 *  SINGLET    - SPIN STATE DEFINED AS A SINGLET
 *  OLDGEO     - PREVIOUS GEOMETRY TO BE USED
 *  PRECISE    - TIGHTER CRITERIA TO BE USED
 *  T=         - A TIME OF 172800.0 SECONDS REQUESTED
 *  DUMP=N     - RESTART FILE WRITTEN EVERY 7200.0 SECONDS REQUESTED
 *  THERMO     - THERMODYNAMIC QUANTITIES TO BE CALCULATED
 *******************************************************************************
OLDGEO PRECISE SINGLET PM7 THERMO
 cyklopropan

   ATOM   CHEMICAL          X               Y               Z
  NUMBER   SYMBOL      (ANGSTROMS)     (ANGSTROMS)     (ANGSTROMS)
 
     1       C         -3.78173641  *   0.58212549  *  -0.01271493  *
     2       C         -2.66231149  *   1.59559706  *   0.01044713  *
     3       C         -2.34458978  *   0.11920566  *   0.02024704  *
     4       H         -2.49163067  *   2.18916787  *   0.90360546  *
     5       H         -2.45169860  *   2.18593752  *  -0.87630764  *
     6       H         -1.94708281  *  -0.34022180  *   0.92031391  *
     7       H         -1.90755578  *  -0.34354604  *  -0.85958159  *
     8       H         -4.36962242  *   0.44954849  *  -0.91604295  *
     9       H         -4.40947961  *   0.45291562  *   0.86386640  *
 


          CARTESIAN COORDINATES 

    NO.       ATOM           X           Y           Z

     1         C         -3.7817      0.5821     -0.0127
     2         C         -2.6623      1.5956      0.0104
     3         C         -2.3446      0.1192      0.0202
     4         H         -2.4916      2.1892      0.9036
     5         H         -2.4517      2.1859     -0.8763
     6         H         -1.9471     -0.3402      0.9203
     7         H         -1.9076     -0.3435     -0.8596
     8         H         -4.3696      0.4495     -0.9160
     9         H         -4.4095      0.4529      0.8639

 General Reference for PM7:
 "Optimization of Parameters for Semiempirical Methods VI: More Modifications to the 
 NDDO Approximations and Re-optimization of Parameters", J. J. P. Stewart, J. Mol. Mod., 1:32, 19 (2013)
 https://link.springer.com/article/10.1007/s00894-012-1667-x

           Empirical Formula: C3 H6  =     9 atoms



      MOLECULAR POINT GROUP   :   D3h 


 SINGLET STATE CALCULATION


      RHF CALCULATION, NO. OF DOUBLY OCCUPIED LEVELS = 9



          HEAT OF FORMATION =      12.017606 KCALS/MOLE


          CARTESIAN COORDINATE DERIVATIVES

   NUMBER  ATOM         X            Y            Z

     1       C     -0.011061    -0.008185    -0.006613
     2       C     -0.002545    -0.009773    -0.003411
     3       C     -0.003157    -0.014006    -0.004605
     4       H     -0.003601     0.001008     0.001015
     5       H      0.006939     0.006101     0.000080
     6       H      0.009604     0.012844     0.000151
     7       H     -0.004992     0.006596     0.005909
     8       H      0.003157     0.004974    -0.001336
     9       H      0.005655     0.000441     0.008809
 


          GRADIENT NORM =   0.03437

          MOLECULAR WEIGHT =   42.08



          ROTATIONAL CONSTANTS IN CM(-1)

          A =    0.66797976   B =    0.66797497   C =    0.41227222



           PRINCIPAL MOMENTS OF INERTIA IN UNITS OF 10**(-40)*GRAM-CM**2

          A =       41.9066   B =       41.9069   C =       67.8987


          ORIENTATION OF MOLECULE IN FORCE CALCULATION

    NO.       ATOM         X         Y         Z

     1          C      -0.7551   -0.4360   -0.0000
     2          C       0.7551   -0.4360   -0.0000
     3          C      -0.0000    0.8719   -0.0000
     4          H       1.2937   -0.7469   -0.8902
     5          H       1.2938   -0.7468    0.8902
     6          H       0.0001    1.4939   -0.8901
     7          H      -0.0001    1.4938    0.8902
     8          H      -1.2937   -0.7468    0.8902
     9          H      -1.2937   -0.7470   -0.8902


    FIRST DERIVATIVES WILL BE USED IN THE CALCULATION OF SECOND DERIVATIVES

          ESTIMATED TIME TO COMPLETE CALCULATION =        1.69 SECONDS

    FOR POINT-GROUP D3h  THERE ARE  12 UNIQUE SYMMETRY FUNCTIONS.

 STEP:   1 TIME =     0.08 SECS, INTEGRAL =      0.08 TIME LEFT: 172799.91
 STEP:   2 TIME =     0.08 SECS, INTEGRAL =      0.16 TIME LEFT: 172799.83
 STEP:   3 TIME =     0.05 SECS, INTEGRAL =      0.20 TIME LEFT: 172799.78
 STEP:   4                       INTEGRAL =      0.20 TIME LEFT: 172799.78
 STEP:   5                       INTEGRAL =      0.20 TIME LEFT: 172799.78
 STEP:   6                       INTEGRAL =      0.20 TIME LEFT: 172799.78
 STEP:   7                       INTEGRAL =      0.20 TIME LEFT: 172799.78
 STEP:   8                       INTEGRAL =      0.20 TIME LEFT: 172799.78
 STEP:   9                       INTEGRAL =      0.20 TIME LEFT: 172799.78
 STEP:  10 TIME =     0.09 SECS, INTEGRAL =      0.29 TIME LEFT: 172799.70
 STEP:  11 TIME =     0.05 SECS, INTEGRAL =      0.34 TIME LEFT: 172799.65
 STEP:  12 TIME =     0.05 SECS, INTEGRAL =      0.39 TIME LEFT: 172799.59
 STEP:  13                       INTEGRAL =      0.39 TIME LEFT: 172799.59
 STEP:  14                       INTEGRAL =      0.39 TIME LEFT: 172799.59
 STEP:  15                       INTEGRAL =      0.39 TIME LEFT: 172799.59
 STEP:  16                       INTEGRAL =      0.39 TIME LEFT: 172799.59
 STEP:  17                       INTEGRAL =      0.39 TIME LEFT: 172799.59
 STEP:  18                       INTEGRAL =      0.39 TIME LEFT: 172799.59
 STEP:  19                       INTEGRAL =      0.39 TIME LEFT: 172799.59
 STEP:  20                       INTEGRAL =      0.39 TIME LEFT: 172799.59
 STEP:  21                       INTEGRAL =      0.39 TIME LEFT: 172799.59
 STEP:  22                       INTEGRAL =      0.39 TIME LEFT: 172799.59
 STEP:  23                       INTEGRAL =      0.39 TIME LEFT: 172799.59
 STEP:  24                       INTEGRAL =      0.39 TIME LEFT: 172799.59
 STEP:  25                       INTEGRAL =      0.39 TIME LEFT: 172799.59
 STEP:  26                       INTEGRAL =      0.39 TIME LEFT: 172799.59
 STEP:  27                       INTEGRAL =      0.39 TIME LEFT: 172799.59

(To convert to Hartree/Bohr^2, multiply by (10^(-21) x N x a0^2)/(4.184 x 627.51) =  0.0642)


           FORCE MATRIX IN MILLIDYNES/ANGSTROM


                  C  1       C  2       C  3       H  4       H  5       H  6
 ------------------------------------------------------------------------------
     C    1  12.248508
     C    2   3.903889  12.248508
     C    3   3.903779   3.903889  12.248508
     H    4   0.585128   3.498415   0.584944   4.351624
     H    5   0.584851   3.498232   0.585005   0.457152   4.351624
     H    6   0.584828   0.584968   3.498360   0.023147   0.045518   4.351624
     H    7   0.585005   0.584851   3.498232   0.045476   0.023157   0.457152
     H    8   3.498232   0.585005   0.584851   0.045518   0.023147   0.045476
     H    9   3.498360   0.584828   0.584968   0.023157   0.045476   0.023147


                  H  7       H  8       H  9
 ------------------------------------------
     H    7   4.351624
     H    8   0.023157   4.351624
     H    9   0.045518   0.457152   4.351624


          HEAT OF FORMATION =      12.017606 KCALS/MOLE

          ZERO POINT ENERGY      47.382 KCAL/MOL


           NORMAL COORDINATE ANALYSIS (Total motion = 1 Angstrom)


   Root No.       1         2         3         4         5         6         7         8

                 1 E"      1 E"      1 A2"     1 E'      1 E'      1 A1"     2 E'      2 E'  

                 804.5     804.5     884.3     939.7     939.7     955.3    1108.3    1108.3
  
           1    0.0000   -0.0000    0.0000   -0.1026   -0.0570   -0.0000    0.0053    0.0196
           2   -0.0000    0.0000   -0.0000   -0.0594    0.0985    0.0000   -0.0047   -0.0347
           3   -0.0007    0.0011    0.0154    0.0000    0.0000    0.0000   -0.0000   -0.0000
           4    0.0000   -0.0000    0.0000   -0.0021    0.1173   -0.0000   -0.0192   -0.0090
           5    0.0000   -0.0000    0.0000    0.1150   -0.0019   -0.0000   -0.0349   -0.0115
           6   -0.0005   -0.0012    0.0154    0.0000   -0.0000   -0.0000    0.0000   -0.0000
           7   -0.0000    0.0000   -0.0000    0.0986   -0.0568    0.0000   -0.0331    0.0255
           8   -0.0000   -0.0000   -0.0000   -0.0592   -0.1027    0.0000    0.0015    0.0017
           9    0.0013    0.0001    0.0154   -0.0000   -0.0000   -0.0000    0.0000   -0.0000
          10    0.1280    0.0279   -0.1123    0.0121    0.1011    0.0833    0.1132    0.0458
          11    0.1451   -0.1169    0.0649    0.1152    0.0123    0.1443    0.1999    0.0696
          12    0.0313    0.0674   -0.0919    0.0003   -0.0004    0.0000    0.0000   -0.0001
          13   -0.1280   -0.0279    0.1123    0.0121    0.1011   -0.0833    0.1132    0.0458
          14   -0.1451    0.1169   -0.0648    0.1152    0.0123   -0.1443    0.1999    0.0696
          15    0.0313    0.0674   -0.0919   -0.0003    0.0004   -0.0000   -0.0000    0.0001
          16    0.0190   -0.2072   -0.0000    0.1059   -0.0610   -0.1667    0.1910   -0.1467
          17   -0.0910   -0.0083   -0.1297   -0.0470   -0.0815   -0.0000   -0.0034   -0.0040
          18   -0.0743   -0.0067   -0.0919    0.0003    0.0004    0.0000    0.0000    0.0001
          19   -0.0190    0.2072   -0.0000    0.1059   -0.0610    0.1667    0.1910   -0.1467
          20    0.0910    0.0083    0.1297   -0.0470   -0.0815    0.0000   -0.0034   -0.0040
          21   -0.0743   -0.0067   -0.0919   -0.0003   -0.0004   -0.0000   -0.0001   -0.0001
          22    0.1310   -0.0044   -0.1123   -0.0814   -0.0612   -0.0833   -0.0241   -0.1142
          23   -0.1215   -0.1410   -0.0649   -0.0471    0.1058    0.1443    0.0309    0.1995
          24    0.0430   -0.0607   -0.0919    0.0005    0.0000    0.0000    0.0001   -0.0000
          25   -0.1310    0.0044    0.1123   -0.0814   -0.0612    0.0833   -0.0241   -0.1143
          26    0.1215    0.1410    0.0649   -0.0471    0.1058   -0.1443    0.0309    0.1995
          27    0.0430   -0.0607   -0.0919   -0.0005    0.0000   -0.0000   -0.0001    0.0000


   Root No.       9        10        11        12        13        14        15        16

                 2 E"      2 E"      1 A2'     1 A1'     3 E'      3 E'      2 A1'     3 E"  

                1135.3    1135.3    1222.3    1369.3    1377.5    1377.5    1453.9    2707.8
  
           1    0.0000    0.0000    0.0210   -0.0121   -0.0057   -0.0235   -0.1201   -0.0000
           2   -0.0000   -0.0000   -0.0363   -0.0070    0.0011   -0.0142   -0.0693    0.0000
           3    0.0668   -0.0000   -0.0000    0.0000   -0.0000    0.0000    0.0000   -0.0276
           4   -0.0000   -0.0000    0.0209    0.0121   -0.0230   -0.0105    0.1201   -0.0000
           5   -0.0000    0.0000    0.0363   -0.0070    0.0149    0.0021   -0.0693   -0.0000
           6   -0.0334   -0.0592    0.0000   -0.0000    0.0000    0.0000   -0.0000    0.0100
           7    0.0000    0.0000   -0.0419    0.0000   -0.0024   -0.0029   -0.0000    0.0000
           8    0.0000   -0.0000   -0.0000    0.0140    0.0230   -0.0172    0.1387   -0.0000
           9   -0.0334    0.0592    0.0000    0.0000    0.0000   -0.0000    0.0000    0.0176
          10    0.1155    0.1012   -0.0729    0.1162    0.1579    0.0596   -0.0221    0.0459
          11    0.0345   -0.1182   -0.1262   -0.0671   -0.0920   -0.0324    0.0128   -0.0282
          12    0.0368    0.0651   -0.0000    0.0866    0.1492    0.0554   -0.0939   -0.0665
          13   -0.1155   -0.1012   -0.0729    0.1162    0.1579    0.0596   -0.0221   -0.0459
          14   -0.0345    0.1182   -0.1262   -0.0671   -0.0920   -0.0324    0.0128    0.0282
          15    0.0368    0.0652   -0.0000   -0.0866   -0.1492   -0.0554    0.0939   -0.0665
          16    0.0876    0.0517    0.1457   -0.0000    0.0012    0.0014    0.0000   -0.0012
          17    0.0828   -0.1467    0.0000    0.1342   -0.1538    0.1150   -0.0255    0.0948
          18    0.0368   -0.0652   -0.0000    0.0866   -0.1256    0.0939   -0.0939   -0.1170
          19   -0.0876   -0.0517    0.1457   -0.0000    0.0012    0.0014    0.0000    0.0012
          20   -0.0828    0.1467    0.0000    0.1342   -0.1538    0.1150   -0.0255   -0.0948
          21    0.0368   -0.0651   -0.0000   -0.0866    0.1256   -0.0939    0.0939   -0.1171
          22   -0.1434   -0.0517   -0.0729   -0.1162    0.0260    0.1582    0.0221   -0.1289
          23   -0.0828    0.0896    0.1262   -0.0671    0.0128    0.0917    0.0128   -0.0741
          24   -0.0735    0.0000    0.0000   -0.0866    0.0236    0.1493    0.0939    0.1835
          25    0.1434    0.0517   -0.0729   -0.1162    0.0260    0.1582    0.0221    0.1289
          26    0.0828   -0.0896    0.1262   -0.0671    0.0128    0.0917    0.0128    0.0741
          27   -0.0735    0.0000    0.0000    0.0866   -0.0236   -0.1493   -0.0939    0.1835


   Root No.      17        18        19        20        21

                 3 E"      2 A2"     3 A1'     4 E'      4 E'  

                2707.8    2741.8    2784.4    2793.4    2793.4
  
           1    0.0000   -0.0000   -0.0105   -0.0054    0.0187
           2    0.0000   -0.0000   -0.0060   -0.0060    0.0096
           3    0.0046   -0.0202    0.0000   -0.0000   -0.0000
           4   -0.0000   -0.0000    0.0105    0.0105    0.0161
           5    0.0000    0.0000   -0.0060   -0.0085   -0.0072
           6   -0.0276   -0.0202   -0.0000    0.0000    0.0000
           7    0.0000   -0.0000   -0.0000    0.0004    0.0028
           8   -0.0000    0.0000    0.0121   -0.0210    0.0035
           9    0.0229   -0.0202    0.0000    0.0000   -0.0000
          10   -0.1291   -0.0864   -0.0799   -0.0761   -0.1015
          11    0.0738    0.0499    0.0462    0.0454    0.0573
          12    0.1835    0.1206    0.1315    0.1234    0.1622
          13    0.1291    0.0864   -0.0799   -0.0761   -0.1015
          14   -0.0738   -0.0499    0.0462    0.0454    0.0574
          15    0.1835    0.1206   -0.1315   -0.1234   -0.1622
          16    0.0010    0.0000    0.0000   -0.0002   -0.0017
          17    0.1237   -0.0998   -0.0923    0.1396   -0.0230
          18   -0.1527    0.1206    0.1315   -0.1944    0.0320
          19   -0.0010    0.0000   -0.0000   -0.0002   -0.0017
          20   -0.1237    0.0998   -0.0923    0.1396   -0.0230
          21   -0.1527    0.1206   -0.1315    0.1944   -0.0320
          22    0.0209   -0.0864    0.0799    0.0434   -0.1212
          23    0.0139   -0.0499    0.0462    0.0268   -0.0693
          24   -0.0309    0.1206   -0.1315   -0.0710    0.1943
          25   -0.0209    0.0864    0.0799    0.0434   -0.1212
          26   -0.0139    0.0499    0.0462    0.0268   -0.0692
          27   -0.0309    0.1206    0.1315    0.0710   -0.1943


           MASS-WEIGHTED COORDINATE ANALYSIS (NORMAL COORDINATES)


   Root No.       1         2         3         4         5         6         7         8

                 1 E"      1 E"      1 A2"     1 E'      1 E'      1 A1"     2 E'      2 E'  

                 804.5     804.5     884.3     939.7     939.7     955.3    1108.3    1108.3
  
           1    0.0000   -0.0000    0.0000   -0.4759   -0.2643   -0.0000    0.0404    0.1547
           2   -0.0000    0.0000   -0.0000   -0.2753    0.4569    0.0000   -0.0358   -0.2735
           3   -0.0062    0.0088    0.1331    0.0000    0.0000    0.0000   -0.0000   -0.0000
           4    0.0000   -0.0000    0.0000   -0.0100    0.5443   -0.0000   -0.1435   -0.0704
           5    0.0000   -0.0000    0.0000    0.5333   -0.0090   -0.0000   -0.2609   -0.0896
           6   -0.0045   -0.0098    0.1331    0.0000   -0.0000   -0.0000    0.0000   -0.0000
           7   -0.0000    0.0000   -0.0000    0.4573   -0.2635    0.0000   -0.2465    0.2014
           8   -0.0000   -0.0000   -0.0000   -0.2745   -0.4763    0.0000    0.0109    0.0134
           9    0.0108    0.0010    0.1331   -0.0000   -0.0000   -0.0000    0.0000   -0.0000
          10    0.3081    0.0671   -0.2807    0.0163    0.1358    0.2041    0.2448    0.1037
          11    0.3488   -0.2828    0.1621    0.1547    0.0165    0.3536    0.4324    0.1575
          12    0.0754    0.1628   -0.2297    0.0003   -0.0006    0.0000    0.0001   -0.0002
          13   -0.3081   -0.0671    0.2807    0.0163    0.1358   -0.2041    0.2448    0.1037
          14   -0.3488    0.2827   -0.1621    0.1547    0.0165   -0.3536    0.4324    0.1575
          15    0.0754    0.1628   -0.2297   -0.0003    0.0006   -0.0000   -0.0001    0.0002
          16    0.0451   -0.5007   -0.0000    0.1423   -0.0820   -0.4082    0.4115   -0.3362
          17   -0.2190   -0.0197   -0.3241   -0.0631   -0.1095   -0.0000   -0.0074   -0.0091
          18   -0.1787   -0.0161   -0.2297    0.0003    0.0006    0.0000    0.0001    0.0001
          19   -0.0451    0.5007   -0.0000    0.1423   -0.0820    0.4083    0.4115   -0.3362
          20    0.2190    0.0197    0.3241   -0.0631   -0.1095    0.0000   -0.0074   -0.0091
          21   -0.1787   -0.0161   -0.2297   -0.0003   -0.0006   -0.0000   -0.0001   -0.0001
          22    0.3152   -0.0110   -0.2807   -0.1094   -0.0822   -0.2041   -0.0528   -0.2606
          23   -0.2927   -0.3405   -0.1621   -0.0633    0.1422    0.3536    0.0681    0.4552
          24    0.1033   -0.1467   -0.2297    0.0007    0.0000    0.0000    0.0002   -0.0000
          25   -0.3151    0.0110    0.2807   -0.1094   -0.0822    0.2041   -0.0528   -0.2606
          26    0.2927    0.3405    0.1621   -0.0633    0.1422   -0.3535    0.0681    0.4552
          27    0.1033   -0.1467   -0.2297   -0.0007    0.0000   -0.0000   -0.0002    0.0000


   Root No.       9        10        11        12        13        14        15        16

                 2 E"      2 E"      1 A2'     1 A1'     3 E'      3 E'      2 A1'     3 E"  

                1135.3    1135.3    1222.3    1369.3    1377.5    1377.5    1453.9    2707.8
  
           1    0.0000    0.0000    0.1658   -0.1045   -0.0425   -0.1883   -0.4805   -0.0000
           2   -0.0000   -0.0000   -0.2872   -0.0603    0.0089   -0.1137   -0.2774    0.0000
           3    0.5047   -0.0000   -0.0000    0.0000   -0.0000    0.0000    0.0000   -0.2208
           4   -0.0000   -0.0000    0.1658    0.1045   -0.1736   -0.0845    0.4805   -0.0000
           5   -0.0000    0.0000    0.2872   -0.0603    0.1127    0.0174   -0.2774   -0.0000
           6   -0.2524   -0.4371    0.0000   -0.0000    0.0000    0.0000   -0.0000    0.0802
           7    0.0000    0.0000   -0.3317    0.0000   -0.0182   -0.0229   -0.0000    0.0000
           8    0.0000   -0.0000   -0.0000    0.1207    0.1743   -0.1380    0.5549   -0.0000
           9   -0.2523    0.4371    0.0000    0.0000    0.0000   -0.0000    0.0000    0.1407
          10    0.2526    0.2163   -0.1671    0.2905    0.3454    0.1392   -0.0256    0.1069
          11    0.0754   -0.2526   -0.2894   -0.1677   -0.2012   -0.0758    0.0148   -0.0655
          12    0.0804    0.1393   -0.0000    0.2164    0.3264    0.1293   -0.1088   -0.1547
          13   -0.2526   -0.2163   -0.1671    0.2905    0.3454    0.1392   -0.0256   -0.1069
          14   -0.0754    0.2526   -0.2894   -0.1677   -0.2012   -0.0758    0.0148    0.0655
          15    0.0804    0.1393   -0.0000   -0.2164   -0.3264   -0.1294    0.1088   -0.1547
          16    0.1916    0.1106    0.3342   -0.0000    0.0026    0.0033    0.0000   -0.0028
          17    0.1811   -0.3137    0.0000    0.3355   -0.3370    0.2670   -0.0296    0.2199
          18    0.0804   -0.1393   -0.0000    0.2164   -0.2752    0.2180   -0.1088   -0.2715
          19   -0.1916   -0.1106    0.3342   -0.0000    0.0027    0.0033    0.0000    0.0028
          20   -0.1811    0.3137    0.0000    0.3355   -0.3371    0.2670   -0.0296   -0.2199
          21    0.0804   -0.1393   -0.0000   -0.2164    0.2752   -0.2180    0.1088   -0.2715
          22   -0.3137   -0.1106   -0.1671   -0.2905    0.0564    0.3681    0.0256   -0.2993
          23   -0.1811    0.1916    0.2894   -0.1677    0.0277    0.2132    0.0148   -0.1722
          24   -0.1608    0.0000    0.0000   -0.2164    0.0512    0.3474    0.1088    0.4261
          25    0.3136    0.1106   -0.1671   -0.2905    0.0564    0.3681    0.0256    0.2993
          26    0.1811   -0.1916    0.2894   -0.1677    0.0277    0.2132    0.0148    0.1721
          27   -0.1608    0.0000    0.0000    0.2164   -0.0512   -0.3474   -0.1088    0.4261


   Root No.      17        18        19        20        21

                 3 E"      2 A2"     3 A1'     4 E'      4 E'  

                2707.8    2741.8    2784.4    2793.4    2793.4
  
           1    0.0000   -0.0000   -0.0903   -0.0434    0.1421
           2    0.0000   -0.0000   -0.0522   -0.0485    0.0730
           3    0.0349   -0.1738    0.0000   -0.0000   -0.0000
           4   -0.0000   -0.0000    0.0903    0.0844    0.1223
           5    0.0000    0.0000   -0.0521   -0.0683   -0.0549
           6   -0.2087   -0.1738   -0.0000    0.0000    0.0000
           7    0.0000   -0.0000   -0.0000    0.0033    0.0215
           8   -0.0000    0.0000    0.1043   -0.1691    0.0262
           9    0.1738   -0.1738    0.0000    0.0000   -0.0000
          10   -0.2832   -0.2149   -0.1998   -0.1773   -0.2233
          11    0.1620    0.1241    0.1154    0.1057    0.1262
          12    0.4028    0.3000    0.3286    0.2873    0.3571
          13    0.2832    0.2149   -0.1998   -0.1773   -0.2233
          14   -0.1621   -0.1241    0.1154    0.1057    0.1262
          15    0.4028    0.2999   -0.3286   -0.2873   -0.3571
          16    0.0022    0.0000    0.0000   -0.0006   -0.0037
          17    0.2717   -0.2482   -0.2308    0.3254   -0.0505
          18   -0.3353    0.2999    0.3286   -0.4529    0.0702
          19   -0.0022    0.0000   -0.0000   -0.0006   -0.0037
          20   -0.2717    0.2482   -0.2307    0.3253   -0.0505
          21   -0.3353    0.3000   -0.3286    0.4529   -0.0703
          22    0.0456   -0.2149    0.1998    0.1013   -0.2665
          23    0.0303   -0.1241    0.1154    0.0625   -0.1523
          24   -0.0674    0.3000   -0.3286   -0.1656    0.4273
          25   -0.0456    0.2149    0.1998    0.1013   -0.2665
          26   -0.0303    0.1241    0.1154    0.0625   -0.1523
          27   -0.0674    0.3000    0.3286    0.1656   -0.4273


          DESCRIPTION OF VIBRATIONS


 VIBRATION          2    1E"         ATOM PAIR     ENERGY CONTRIBUTION    RADIAL
 FREQUENCY           804.54         C 3 -- H 7         +22.8% ( 59.7%)      0.0%
 TRANSITION DIPOLE   0.0000         C 3 -- H 6         +22.8% ( 59.7%)      0.0%
 TRAVEL (Ang.)       0.6636         C 1 -- H 9         +14.6% ( 47.7%)      0.4%
 REDUCED MASS        0.1903         C 1 -- H 8         +14.6% ( 47.7%)      0.4%
 EFFECTIVE MASS      1.0105         C 2 -- H 4         +12.6% ( 44.4%)      0.7%
 FORCE CONSTANT      0.0726         C 2 -- H 5         +12.6% ( 44.4%)      0.7%

 VIBRATION          3    1A2"        ATOM PAIR     ENERGY CONTRIBUTION    RADIAL
 FREQUENCY           884.32         C 1 -- H 8         +15.7% ( 55.6%)      5.3%
 TRANSITION DIPOLE   0.4906         C 1 -- H 9         +15.7% ( 55.6%)      5.3%
 TRAVEL (Ang.)       0.6863         C 2 -- H 4         +15.7% ( 55.6%)      5.3%
 REDUCED MASS        0.1619         C 2 -- H 5         +15.7% ( 55.6%)      5.3%
 EFFECTIVE MASS      1.5678         C 3 -- H 6         +15.7% ( 55.6%)      5.3%
 FORCE CONSTANT      0.0746         C 3 -- H 7         +15.7% ( 55.6%)      5.3%

 VIBRATION          5    1E'         ATOM PAIR     ENERGY CONTRIBUTION    RADIAL
 FREQUENCY           939.67         C 1 -- C 2         +18.5% ( 82.3%)     75.1%
 TRANSITION DIPOLE   0.5326         C 1 -- C 3         +18.5% ( 82.3%)     74.9%
 TRAVEL (Ang.)       0.1535         C 2 -- C 3         +17.6% ( 80.3%)      0.0%
 REDUCED MASS        3.0441         C 3 -- H 7          +9.5% ( 58.8%)     26.2%
 EFFECTIVE MASS     11.6678
 FORCE CONSTANT      1.5837

 VIBRATION          6    1A1"        ATOM PAIR     ENERGY CONTRIBUTION    RADIAL
 FREQUENCY           955.26         C 3 -- H 7         +16.7% ( 40.9%)      0.0%
 TRANSITION DIPOLE   0.0000         C 1 -- H 8         +16.7% ( 40.9%)      0.0%
 TRAVEL (Ang.)       0.6482         C 2 -- H 5         +16.7% ( 40.9%)      0.0%
 REDUCED MASS        0.1680         C 3 -- H 6         +16.7% ( 40.9%)      0.0%
 EFFECTIVE MASS      1.0079         C 1 -- H 9         +16.7% ( 40.9%)      0.0%
 FORCE CONSTANT      0.0903         C 2 -- H 4         +16.7% ( 40.9%)      0.0%

 VIBRATION          8    2E'         ATOM PAIR     ENERGY CONTRIBUTION    RADIAL
 FREQUENCY          1108.35         C 1 -- H 9         +28.4% ( 57.3%)      0.0%
 TRANSITION DIPOLE   0.5260         C 1 -- H 8         +28.4% ( 57.3%)      0.0%
 TRAVEL (Ang.)       0.4361         C 3 -- H 6         +11.7% ( 36.8%)      0.1%
 REDUCED MASS        0.3199         C 3 -- H 7         +11.7% ( 36.8%)      0.1%
 EFFECTIVE MASS      2.2131
 FORCE CONSTANT      0.2315

 VIBRATION         10    2E"         ATOM PAIR     ENERGY CONTRIBUTION    RADIAL
 FREQUENCY          1135.27         C 2 -- C 3         +17.5% ( 55.6%)      0.0%
 TRANSITION DIPOLE   0.0000         C 3 -- H 7         +15.7% ( 52.7%)     19.4%
 TRAVEL (Ang.)       0.2501         C 3 -- H 6         +15.7% ( 52.7%)     19.4%
 REDUCED MASS        0.9497         C 2 -- H 5         +15.7% ( 52.7%)     19.4%
 EFFECTIVE MASS      4.7693         C 2 -- H 4         +15.7% ( 52.7%)     19.4%
 FORCE CONSTANT      0.7212

 VIBRATION         11    1A2'        ATOM PAIR     ENERGY CONTRIBUTION    RADIAL
 FREQUENCY          1222.30         C 2 -- H 5         +13.3% ( 39.0%)      0.0%
 TRANSITION DIPOLE   0.0000         C 3 -- H 6         +13.3% ( 39.0%)      0.0%
 TRAVEL (Ang.)       0.3284         C 1 -- H 9         +13.3% ( 39.0%)      0.0%
 REDUCED MASS        0.5115         C 1 -- H 8         +13.3% ( 39.0%)      0.0%
 EFFECTIVE MASS      3.2997         C 3 -- H 7         +13.3% ( 39.0%)      0.0%
 FORCE CONSTANT      0.4503         C 2 -- H 4         +13.3% ( 39.0%)      0.0%

 VIBRATION         12    1A1'        ATOM PAIR     ENERGY CONTRIBUTION    RADIAL
 FREQUENCY          1369.33         C 2 -- H 5         +14.8% ( 33.3%)      3.2%
 TRANSITION DIPOLE   0.0000         C 3 -- H 6         +14.8% ( 33.3%)      3.2%
 TRAVEL (Ang.)       0.5526         C 1 -- H 9         +14.8% ( 33.3%)      3.2%
 REDUCED MASS        0.1613         C 1 -- H 8         +14.8% ( 33.3%)      3.2%
 EFFECTIVE MASS      1.5468         C 3 -- H 7         +14.8% ( 33.3%)      3.2%
 FORCE CONSTANT      0.1782         C 2 -- H 4         +14.8% ( 33.3%)      3.2%

 VIBRATION         14    3E'         ATOM PAIR     ENERGY CONTRIBUTION    RADIAL
 FREQUENCY          1377.53         C 1 -- H 8         +29.4% ( 50.6%)      1.3%
 TRANSITION DIPOLE   0.5219         C 1 -- H 9         +29.4% ( 50.6%)      1.3%
 TRAVEL (Ang.)       0.4436         C 3 -- H 7         +11.6% ( 31.8%)      1.3%
 REDUCED MASS        0.2488         C 3 -- H 6         +11.6% ( 31.8%)      1.3%
 EFFECTIVE MASS      1.5717
 FORCE CONSTANT      0.2781

 VIBRATION         15    2A1'        ATOM PAIR     ENERGY CONTRIBUTION    RADIAL
 FREQUENCY          1453.94         C 1 -- C 3         +19.4% ( 72.8%)    100.0%
 TRANSITION DIPOLE   0.0000         C 2 -- C 3         +19.4% ( 72.8%)    100.0%
 TRAVEL (Ang.)       0.1165         C 1 -- C 2         +19.4% ( 72.8%)    100.0%
 REDUCED MASS        3.4168         C 2 -- H 4          +7.0% ( 43.7%)     17.1%
 EFFECTIVE MASS     11.6309
 FORCE CONSTANT      4.2557

 VIBRATION         17    3E"         ATOM PAIR     ENERGY CONTRIBUTION    RADIAL
 FREQUENCY          2707.81         C 2 -- H 4         +28.5% ( 55.5%)     98.6%
 TRANSITION DIPOLE   0.0000         C 2 -- H 5         +28.5% ( 55.5%)     98.6%
 TRAVEL (Ang.)       0.3160         C 3 -- H 6         +19.8% ( 46.2%)     98.6%
 REDUCED MASS        0.2494         C 3 -- H 7         +19.8% ( 46.2%)     98.6%
 EFFECTIVE MASS      1.4432
 FORCE CONSTANT      1.0772

 VIBRATION         18    2A2"        ATOM PAIR     ENERGY CONTRIBUTION    RADIAL
 FREQUENCY          2741.78         C 3 -- H 6         +16.4% ( 41.5%)     98.4%
 TRANSITION DIPOLE   1.1977         C 3 -- H 7         +16.4% ( 41.5%)     98.4%
 TRAVEL (Ang.)       0.3784         C 2 -- H 5         +16.4% ( 41.5%)     98.4%
 REDUCED MASS        0.1718         C 2 -- H 4         +16.4% ( 41.5%)     98.4%
 EFFECTIVE MASS      1.5085         C 1 -- H 8         +16.4% ( 41.5%)     98.4%
 FORCE CONSTANT      0.7609         C 1 -- H 9         +16.4% ( 41.5%)     98.4%

 VIBRATION         19    3A1'        ATOM PAIR     ENERGY CONTRIBUTION    RADIAL
 FREQUENCY          2784.36         C 2 -- H 5         +16.4% ( 40.1%)     96.6%
 TRANSITION DIPOLE   0.0000         C 3 -- H 6         +16.4% ( 40.1%)     96.6%
 TRAVEL (Ang.)       0.3873         C 1 -- H 9         +16.4% ( 40.1%)     96.6%
 REDUCED MASS        0.1615         C 1 -- H 8         +16.4% ( 40.1%)     96.6%
 EFFECTIVE MASS      1.2276         C 3 -- H 7         +16.4% ( 40.1%)     96.6%
 FORCE CONSTANT      0.7375         C 2 -- H 4         +16.4% ( 40.1%)     96.6%

 VIBRATION         21    4E'         ATOM PAIR     ENERGY CONTRIBUTION    RADIAL
 FREQUENCY          2793.38         C 1 -- H 8         +28.6% ( 52.8%)     95.2%
 TRANSITION DIPOLE   0.7753         C 1 -- H 9         +28.6% ( 52.8%)     95.2%
 TRAVEL (Ang.)       0.3160         C 2 -- H 4         +20.0% ( 44.1%)     95.2%
 REDUCED MASS        0.2417         C 2 -- H 5         +20.0% ( 44.1%)     95.2%
 EFFECTIVE MASS      1.2562
 FORCE CONSTANT      1.1111

      SYMMETRY NUMBER FOR POINT-GROUP D3h =  6


          SYSTEM IS A GROUND STATE



 cyklopropan


          MOLECULE IS NOT LINEAR

          THERE ARE 21 GENUINE VIBRATIONS IN THIS SYSTEM
          THIS THERMODYNAMICS CALCULATION IS LIMITED TO
          MOLECULES WHICH HAVE NO INTERNAL ROTATIONS




                    CALCULATED THERMODYNAMIC PROPERTIES
                                          *
   TEMP. (K)   PARTITION FUNCTION   H.O.F.    ENTHALPY  HEAT CAPACITY ENTROPY
                                   KCAL/MOL   CAL/MOLE    CAL/K/MOL  CAL/K/MOL


 298.00  VIB.     0.1119D+01                   304.1936     4.8026     1.2445
         ROT.     0.2053D+04                   888.2803     2.9808    18.1374
         INT.     0.2298D+04                  1192.4739     7.7834    19.3819
         TRA.     0.2639D+27                  1480.4672     4.9680    37.1356
         TOT.                       12.018    2672.9410    12.7514    56.5175

 200.00  VIB.     0.1013D+01                    32.8610     1.0799     0.1898
         ROT.     0.1129D+04                   596.1613     2.9808    16.9487
         INT.     0.1143D+04                   629.0223     4.0607    17.1385
         TRA.     0.1451D+27                   993.6021     4.9680    35.1545
         TOT.                       10.967    1622.6244     9.0287    52.2930

 210.00  VIB.     0.1018D+01                    44.9872     1.3506     0.2489
         ROT.     0.1215D+04                   625.9693     2.9808    17.0942
         INT.     0.1236D+04                   670.9566     4.3314    17.3430
         TRA.     0.1561D+27                  1043.2822     4.9680    35.3969
         TOT.                       11.059    1714.2388     9.2994    52.7399

 220.00  VIB.     0.1023D+01                    59.9766     1.6522     0.3186
         ROT.     0.1302D+04                   655.7774     2.9808    17.2328
         INT.     0.1333D+04                   715.7540     4.6330    17.5514
         TRA.     0.1674D+27                  1092.9623     4.9680    35.6280
         TOT.                       11.153    1808.7163     9.6011    53.1794

 230.00  VIB.     0.1030D+01                    78.1285     1.9828     0.3992
         ROT.     0.1392D+04                   685.5855     2.9808    17.3653
         INT.     0.1434D+04                   763.7139     4.9636    17.7645
         TRA.     0.1789D+27                  1142.6424     4.9680    35.8488
         TOT.                       11.251    1906.3564     9.9316    53.6133

 240.00  VIB.     0.1039D+01                    99.7211     2.3400     0.4910
         ROT.     0.1484D+04                   715.3935     2.9808    17.4922
         INT.     0.1541D+04                   815.1146     5.3208    17.9832
         TRA.     0.1907D+27                  1192.3226     4.9680    36.0602
         TOT.                       11.352    2007.4372    10.2888    54.0435

 250.00  VIB.     0.1049D+01                   125.0083     2.7213     0.5942
         ROT.     0.1578D+04                   745.2016     2.9808    17.6139
         INT.     0.1654D+04                   870.2098     5.7021    18.2081
         TRA.     0.2028D+27                  1242.0027     4.9680    36.2631
         TOT.                       11.457    2112.2125    10.6701    54.4711

 260.00  VIB.     0.1060D+01                   154.2176     3.1240     0.7087
         ROT.     0.1673D+04                   775.0097     2.9808    17.7308
         INT.     0.1773D+04                   929.2273     6.1048    18.4395
         TRA.     0.2151D+27                  1291.6828     4.9680    36.4579
         TOT.                       11.566    2220.9100    11.0728    54.8974

 270.00  VIB.     0.1073D+01                   187.5499     3.5454     0.8345
         ROT.     0.1771D+04                   804.8177     2.9808    17.8433
         INT.     0.1900D+04                   992.3676     6.5262    18.6777
         TRA.     0.2276D+27                  1341.3629     4.9680    36.6454
         TOT.                       11.678    2333.7305    11.4942    55.3231

 280.00  VIB.     0.1088D+01                   225.1790     3.9829     0.9713
         ROT.     0.1870D+04                   834.6258     2.9808    17.9517
         INT.     0.2034D+04                  1059.8048     6.9637    18.9229
         TRA.     0.2404D+27                  1391.0430     4.9680    36.8261
         TOT.                       11.796    2450.8478    11.9317    55.7490

 290.00  VIB.     0.1104D+01                   267.2523     4.4338     1.1189
         ROT.     0.1971D+04                   864.4339     2.9808    18.0563
         INT.     0.2177D+04                  1131.6861     7.4146    19.1751
         TRA.     0.2533D+27                  1440.7231     4.9680    37.0004
         TOT.                       11.917    2572.4092    12.3826    56.1755

 300.00  VIB.     0.1123D+01                   313.8918     4.8957     1.2769
         ROT.     0.2074D+04                   894.2419     2.9808    18.1573
         INT.     0.2329D+04                  1208.1338     7.8765    19.4343
         TRA.     0.2666D+27                  1490.4032     4.9680    37.1688
         TOT.                       12.043    2698.5369    12.8446    56.6031

 310.00  VIB.     0.1144D+01                   365.1960     5.3664     1.4451
         ROT.     0.2178D+04                   924.0500     2.9808    18.2551
         INT.     0.2492D+04                  1289.2460     8.3472    19.7002
         TRA.     0.2800D+27                  1540.0833     4.9680    37.3317
         TOT.                       12.174    2829.3293    13.3152    57.0319

 320.00  VIB.     0.1167D+01                   421.2407     5.8435     1.6230
         ROT.     0.2285D+04                   953.8580     2.9808    18.3497
         INT.     0.2666D+04                  1375.0987     8.8243    19.9727
         TRA.     0.2937D+27                  1589.7634     4.9680    37.4895
         TOT.                       12.310    2964.8622    13.7923    57.4622

 330.00  VIB.     0.1192D+01                   482.0816     6.3253     1.8102
         ROT.     0.2392D+04                   983.6661     2.9808    18.4414
         INT.     0.2852D+04                  1465.7477     9.3061    20.2516
         TRA.     0.3075D+27                  1639.4435     4.9680    37.6423
         TOT.                       12.450    3105.1912    14.2741    57.8940

 340.00  VIB.     0.1220D+01                   547.7555     6.8099     2.0062
         ROT.     0.2502D+04                  1013.4742     2.9808    18.5304
         INT.     0.3053D+04                  1561.2297     9.7907    20.5366
         TRA.     0.3216D+27                  1689.1236     4.9680    37.7907
         TOT.                       12.595    3250.3533    14.7587    58.3273

 350.00  VIB.     0.1250D+01                   618.2830     7.2957     2.2106
         ROT.     0.2613D+04                  1043.2822     2.9808    18.6168
         INT.     0.3268D+04                  1661.5652    10.2765    20.8274
         TRA.     0.3359D+27                  1738.8037     4.9680    37.9347
         TOT.                       12.745    3400.3689    15.2445    58.7621

 360.00  VIB.     0.1284D+01                   693.6692     7.7814     2.4230
         ROT.     0.2726D+04                  1073.0903     2.9808    18.7008
         INT.     0.3499D+04                  1766.7595    10.7622    21.1238
         TRA.     0.3504D+27                  1788.4838     4.9680    38.0746
         TOT.                       12.900    3555.2433    15.7302    59.1984

 370.00  VIB.     0.1320D+01                   773.9065     8.2657     2.6428
         ROT.     0.2840D+04                  1102.8984     2.9808    18.7825
         INT.     0.3748D+04                  1876.8049    11.2465    21.4252
         TRA.     0.3651D+27                  1838.1639     4.9680    38.2107
         TOT.                       13.060    3714.9688    16.2146    59.6360

 380.00  VIB.     0.1359D+01                   858.9758     8.7476     2.8696
         ROT.     0.2956D+04                  1132.7064     2.9808    18.8620
         INT.     0.4017D+04                  1991.6823    11.7284    21.7316
         TRA.     0.3800D+27                  1887.8440     4.9680    38.3432
         TOT.                       13.224    3879.5263    16.6964    60.0748

 390.00  VIB.     0.1401D+01                   948.8480     9.2262     3.1030
         ROT.     0.3074D+04                  1162.5145     2.9808    18.9394
         INT.     0.4306D+04                  2111.3625    12.2070    22.0424
         TRA.     0.3951D+27                  1937.5242     4.9680    38.4723
         TOT.                       13.394    4048.8866    17.1750    60.5147

 400.00  VIB.     0.1447D+01                  1043.4855     9.7006     3.3426
         ROT.     0.3193D+04                  1192.3226     2.9808    19.0149
         INT.     0.4619D+04                  2235.8080    12.6814    22.3575
         TRA.     0.4104D+27                  1987.2043     4.9680    38.5981
         TOT.                       13.568    4223.0123    17.6494    60.9555

   *: NOTE: HEATS OF FORMATION ARE RELATIVE TO THE
            ELEMENTS IN THEIR STANDARD STATE AT 298K
              (=  Standard Enthalpy of Formation).

            Hvib:  Zero-point energy is not included.
                   frequencies of less than zero cm-1 are not included.
            Hrot = (3/2)RT
            Htra = (3/2)RT + pV = (5/2)RT

            Heat capacity is Cp, not Cv

          For more information, see: HTTP://OpenMOPAC.net/Manual/thermochemistry.html


           FORCE CONSTANT IN CARTESIAN COORDINATES (Millidynes/A)

    ATOM   CHEMICAL       X               Y               Z
   NUMBER   SYMBOL  FORCE CONSTANT  FORCE CONSTANT  FORCE CONSTANT

      1       C        8.131866        5.259356        6.622573
      2       C        8.132013        5.259209        6.622573
      3       C        3.822954        9.568267        6.622573
      4       H        1.685064        0.924511        2.945241
      5       H        1.685178        0.924576        2.945061
      6       H        0.544294        2.065436        2.945086
      7       H        0.544294        2.065306        2.945216
      8       H        1.685025        0.924615        2.945176
      9       H        1.685139        0.924550        2.945126

 **********************
 *                    *
 * JOB ENDED NORMALLY *
 *                    *
 **********************



 TOTAL JOB TIME:             1.18 SECONDS

 == MOPAC DONE ==
