 *******************************************************************************
 **                                                                           **
 **                              MOPAC v22.1.0                                **
 **                                                                           **
 *******************************************************************************
 **          Digital Object Identifier (DOI): 10.5281/zenodo.6511958          **
 **    Visit the DOI location for information on how to cite this program.    **
 *******************************************************************************

                              PM7 CALCULATION RESULTS

 *******************************************************************************
 *  CALCULATION DONE:                                Mon Jan 22 20:08:07 2024  *
 *  PM7        - The PM7 Hamiltonian to be used
 *  SINGLET    - SPIN STATE DEFINED AS A SINGLET
 *
 *
 *
 *                 CHARGE ON SYSTEM = 0
 *
 *
 *
 *  PRECISE    - TIGHTER CRITERIA TO BE USED
 *  T=         - A TIME OF 172800.0 SECONDS REQUESTED
 *  DUMP=N     - RESTART FILE WRITTEN EVERY 7200.0 SECONDS REQUESTED
 *  LARGE      - EXPANDED OUTPUT TO BE PRINTED
 *******************************************************************************
 PRECISE LARGE CHARGE=0 SINGLET  PM7
 1,3-dichlorpropan

   ATOM   CHEMICAL          X               Y               Z
  NUMBER   SYMBOL      (ANGSTROMS)     (ANGSTROMS)     (ANGSTROMS)
 
     1       C          0.53748000  *   0.30636000  *  -0.38267000  *
     2       C         -0.59842000  *  -0.23981000  *   0.48046000  *
     3       H          1.12196000  *  -0.53025000  *  -0.82157000  *
     4      Cl          1.63013000  *   1.30778000  *   0.60571000  *
     5       H          0.12805000  *   0.93198000  *  -1.20433000  *
     6       C         -1.55019000  *  -1.10302000  *  -0.34572000  *
     7       H         -1.16420000  *   0.60981000  *   0.92135000  *
     8       H         -0.17047000  *  -0.85213000  *   1.30403000  *
     9       H         -1.99735000  *  -0.50286000  *  -1.16671000  *
    10      Cl         -2.86294000  *  -1.72548000  *   0.68524000  *
    11       H         -1.00343000  *  -1.96509000  *  -0.78396000  *
 


          CARTESIAN COORDINATES 

    NO.       ATOM           X           Y           Z

     1         C          0.5375      0.3064     -0.3827
     2         C         -0.5984     -0.2398      0.4805
     3         H          1.1220     -0.5302     -0.8216
     4        Cl          1.6301      1.3078      0.6057
     5         H          0.1280      0.9320     -1.2043
     6         C         -1.5502     -1.1030     -0.3457
     7         H         -1.1642      0.6098      0.9214
     8         H         -0.1705     -0.8521      1.3040
     9         H         -1.9973     -0.5029     -1.1667
    10        Cl         -2.8629     -1.7255      0.6852
    11         H         -1.0034     -1.9651     -0.7840

 General Reference for PM7:
 "Optimization of Parameters for Semiempirical Methods VI: More Modifications to the 
 NDDO Approximations and Re-optimization of Parameters", J. J. P. Stewart, J. Mol. Mod., 1:32, 19 (2013)
 https://link.springer.com/article/10.1007/s00894-012-1667-x

           Empirical Formula: C3 H6 Cl2  =    11 atoms



      MOLECULAR POINT GROUP   :   C2v 


 SINGLET STATE CALCULATION


      RHF CALCULATION, NO. OF DOUBLY OCCUPIED LEVELS = 16


          Geometry optimization using EF

          DIAGONAL MATRIX USED AS START HESSIAN

 CYCLE:     1 TIME:   0.078 TIME LEFT:  2.00D  GRAD.:    31.053 HEAT: -34.79111
 CYCLE:     2 TIME:   0.109 TIME LEFT:  2.00D  GRAD.:    25.462 HEAT: -35.41545
 CYCLE:     3 TIME:   0.055 TIME LEFT:  2.00D  GRAD.:    24.374 HEAT: -35.79963
 CYCLE:     4 TIME:   0.141 TIME LEFT:  2.00D  GRAD.:    11.578 HEAT: -35.98250
 CYCLE:     5 TIME:   0.180 TIME LEFT:  2.00D  GRAD.:     6.057 HEAT: -36.05271
 CYCLE:     6 TIME:   0.102 TIME LEFT:  2.00D  GRAD.:     5.998 HEAT: -36.07076
 CYCLE:     7 TIME:   0.055 TIME LEFT:  2.00D  GRAD.:     4.452 HEAT: -36.08470
 CYCLE:     8 TIME:   0.133 TIME LEFT:  2.00D  GRAD.:     2.786 HEAT: -36.09133
 CYCLE:     9 TIME:   0.055 TIME LEFT:  2.00D  GRAD.:     2.682 HEAT: -36.09433
 CYCLE:    10 TIME:   0.062 TIME LEFT:  2.00D  GRAD.:     1.403 HEAT: -36.09962
 CYCLE:    11 TIME:   0.047 TIME LEFT:  2.00D  GRAD.:     1.780 HEAT: -36.10488
 CYCLE:    12 TIME:   0.055 TIME LEFT:  2.00D  GRAD.:     2.070 HEAT: -36.11062
 CYCLE:    13 TIME:   0.062 TIME LEFT:  2.00D  GRAD.:     1.388 HEAT: -36.11389
 CYCLE:    14 TIME:   0.047 TIME LEFT:  2.00D  GRAD.:     1.031 HEAT: -36.11518
 CYCLE:    15 TIME:   0.055 TIME LEFT:  2.00D  GRAD.:     0.760 HEAT: -36.11613
 CYCLE:    16 TIME:   0.047 TIME LEFT:  2.00D  GRAD.:     0.563 HEAT: -36.11722
 CYCLE:    17 TIME:   0.070 TIME LEFT:  2.00D  GRAD.:     0.354 HEAT: -36.11775
 CYCLE:    18 TIME:   0.086 TIME LEFT:  2.00D  GRAD.:     0.199 HEAT: -36.11795
 CYCLE:    19 TIME:   0.062 TIME LEFT:  2.00D  GRAD.:     0.137 HEAT: -36.11802
 CYCLE:    20 TIME:   0.047 TIME LEFT:  2.00D  GRAD.:     0.077 HEAT: -36.11805
 CYCLE:    21 TIME:   0.055 TIME LEFT:  2.00D  GRAD.:     0.054 HEAT: -36.11805
 CYCLE:    22 TIME:   0.055 TIME LEFT:  2.00D  GRAD.:     0.053 HEAT: -36.11806
 CYCLE:    23 TIME:   0.047 TIME LEFT:  2.00D  GRAD.:     0.051 HEAT: -36.11807
 CYCLE:    24 TIME:   0.047 TIME LEFT:  2.00D  GRAD.:     0.047 HEAT: -36.11807

     GRADIENT =  0.04741 IS LESS THAN CUTOFF =  0.05000



 -------------------------------------------------------------------------------
 PRECISE LARGE CHARGE=0 SINGLET  PM7
 1,3-dichlorpropan



     GEOMETRY OPTIMISED USING EIGENVECTOR FOLLOWING (EF).     
     SCF FIELD WAS ACHIEVED                                   


                              PM7 CALCULATION
                                                       MOPAC v22.1.0 Windows
                                                       Mon Jan 22 20:08:09 2024




          FINAL HEAT OF FORMATION =        -36.11807 KCAL/MOL =    -151.11801 KJ/MOL


          COSMO AREA              =        136.27 SQUARE ANGSTROMS
          COSMO VOLUME            =        125.60 CUBIC ANGSTROMS

          GRADIENT NORM           =          0.04741          =       0.01429 PER ATOM
          IONIZATION POTENTIAL    =         11.021411 EV
          HOMO LUMO ENERGIES (EV) =        -11.021  0.427
          NO. OF FILLED LEVELS    =         16
          MOLECULAR WEIGHT        =        112.9864         POINT GROUP:  C2v 

          MOLECULAR DIMENSIONS (Angstroms)

            Atom       Atom       Distance
           Cl    10   Cl     4     5.35088
            H     8    H     5     2.82419
            H    11    H     7     2.76885


          SCF CALCULATIONS        =         29
 
          WALL-CLOCK TIME         =      1.836 SECONDS
          COMPUTATION TIME        =      6.531 SECONDS




   ATOM   CHEMICAL          X               Y               Z
  NUMBER   SYMBOL      (ANGSTROMS)     (ANGSTROMS)     (ANGSTROMS)
 
     1       C          0.52148633  *   0.29626831  *  -0.39834429  *
     2       C         -0.59802166  *  -0.24045483  *   0.47815092  *
     3       H          1.14667813  *  -0.50102567  *  -0.83243413  *
     4      Cl          1.60136703  *   1.28726473  *   0.61214471  *
     5       H          0.15774421  *   0.95525363  *  -1.20363347  *
     6       C         -1.53082006  *  -1.09871462  *  -0.36023679  *
     7       H         -1.15701977  *   0.59538267  *   0.95620138  *
     8       H         -0.18376009  *  -0.82714356  *   1.32891065  *
     9       H         -2.02013230  *  -0.53485094  *  -1.17119467  *
    10      Cl         -2.83558762  *  -1.70260969  *   0.68964234  *
    11       H         -1.03361443  *  -1.98792274  *  -0.78111965  *

                             CARTESIAN COORDINATES

   1    C        0.521486331     0.296268311    -0.398344289
   2    C       -0.598021664    -0.240454827     0.478150916
   3    H        1.146678134    -0.501025667    -0.832434126
   4   Cl        1.601367034     1.287264727     0.612144709
   5    H        0.157744211     0.955253630    -1.203633469
   6    C       -1.530820062    -1.098714620    -0.360236787
   7    H       -1.157019768     0.595382665     0.956201377
   8    H       -0.183760087    -0.827143559     1.328910650
   9    H       -2.020132296    -0.534850940    -1.171194668
  10   Cl       -2.835587623    -1.702609688     0.689642341
  11    H       -1.033614429    -1.987922739    -0.781119650


           Empirical Formula: C3 H6 Cl2  =    11 atoms



      MOLECULAR POINT GROUP   :   C2v 


                  EIGENVALUES  
 -29.80556 -27.03153 -24.96454 -22.34554 -21.16211 -17.37551 -15.55649 -15.44585
 -15.04184 -13.36650 -13.17667 -12.74469 -11.28719 -11.08688 -11.07391 -11.02141
   0.42717   0.64631   3.06765   3.33886   4.30042   4.60100   5.01246   5.06522
   5.07893   5.71075  69.88642  69.94498  69.99283  70.16175  70.17420  70.32413
  70.32659  70.38433  70.52979  70.59160


              NET ATOMIC CHARGES AND DIPOLE CONTRIBUTIONS

  ATOM NO.   TYPE          CHARGE      No. of ELECS.   s-Pop       p-Pop       d-Pop       
    1          C          -0.175075        4.1751     1.10345     3.07163
    2          C          -0.311923        4.3119     1.06152     3.25041
    3          H           0.155384        0.8446     0.84462
    4         Cl          -0.154993        7.1550     1.98438     5.16479     0.00582
    5          H           0.155430        0.8446     0.84457
    6          C          -0.175069        4.1751     1.10345     3.07161
    7          H           0.175221        0.8248     0.82478
    8          H           0.175208        0.8248     0.82479
    9          H           0.155387        0.8446     0.84461
   10         Cl          -0.155002        7.1550     1.98438     5.16479     0.00582
   11          H           0.155432        0.8446     0.84457
 DIPOLE           X         Y         Z       TOTAL
 POINT-CHG.     0.229    -0.395    -2.102     2.151
 HYBRID         0.013    -0.022    -0.119     0.121
 SUM            0.242    -0.417    -2.220     2.272


          ATOMIC ORBITAL ELECTRON POPULATIONS

     Atom    s        px        py        pz      x^2-y^2     xz        z^2       yz        xy
    1  C   1.10345   0.99546   1.06350   1.01267
    2  C   1.06152   1.04556   1.13091   1.07394
    3  H   0.84462
    4 Cl   1.98438   1.69001   1.74099   1.73379   0.00077   0.00136   0.00074   0.00119   0.00177
    5  H   0.84457
    6  C   1.10345   0.96673   1.09607   1.00882
    7  H   0.82478
    8  H   0.82479
    9  H   0.84461
   10 Cl   1.98438   1.55161   1.90032   1.71286   0.00095   0.00190   0.00077   0.00069   0.00151
   11  H   0.84457
 *******************************************************************************
 **                                                                           **
 **                              MOPAC v22.1.0                                **
 **                                                                           **
 *******************************************************************************
 **          Digital Object Identifier (DOI): 10.5281/zenodo.6511958          **
 **    Visit the DOI location for information on how to cite this program.    **
 *******************************************************************************

                              PM7 CALCULATION RESULTS

 *******************************************************************************
 *  CALCULATION DONE:                                Mon Jan 22 20:08:09 2024  *
 *  PM7        - The PM7 Hamiltonian to be used
 *  SINGLET    - SPIN STATE DEFINED AS A SINGLET
 *  OLDGEO     - PREVIOUS GEOMETRY TO BE USED
 *  PRECISE    - TIGHTER CRITERIA TO BE USED
 *  T=         - A TIME OF 172800.0 SECONDS REQUESTED
 *  DUMP=N     - RESTART FILE WRITTEN EVERY 7200.0 SECONDS REQUESTED
 *  THERMO     - THERMODYNAMIC QUANTITIES TO BE CALCULATED
 *******************************************************************************
OLDGEO PRECISE SINGLET PM7 THERMO
 1,3-dichlorpropan

   ATOM   CHEMICAL          X               Y               Z
  NUMBER   SYMBOL      (ANGSTROMS)     (ANGSTROMS)     (ANGSTROMS)
 
     1       C          0.52148633  *   0.29626831  *  -0.39834429  *
     2       C         -0.59802166  *  -0.24045483  *   0.47815092  *
     3       H          1.14667813  *  -0.50102567  *  -0.83243413  *
     4      Cl          1.60136703  *   1.28726473  *   0.61214471  *
     5       H          0.15774421  *   0.95525363  *  -1.20363347  *
     6       C         -1.53082006  *  -1.09871462  *  -0.36023679  *
     7       H         -1.15701977  *   0.59538267  *   0.95620138  *
     8       H         -0.18376009  *  -0.82714356  *   1.32891065  *
     9       H         -2.02013230  *  -0.53485094  *  -1.17119467  *
    10      Cl         -2.83558762  *  -1.70260969  *   0.68964234  *
    11       H         -1.03361443  *  -1.98792274  *  -0.78111965  *
 


          CARTESIAN COORDINATES 

    NO.       ATOM           X           Y           Z

     1         C          0.5215      0.2963     -0.3983
     2         C         -0.5980     -0.2405      0.4782
     3         H          1.1467     -0.5010     -0.8324
     4        Cl          1.6014      1.2873      0.6121
     5         H          0.1577      0.9553     -1.2036
     6         C         -1.5308     -1.0987     -0.3602
     7         H         -1.1570      0.5954      0.9562
     8         H         -0.1838     -0.8271      1.3289
     9         H         -2.0201     -0.5349     -1.1712
    10        Cl         -2.8356     -1.7026      0.6896
    11         H         -1.0336     -1.9879     -0.7811

 General Reference for PM7:
 "Optimization of Parameters for Semiempirical Methods VI: More Modifications to the 
 NDDO Approximations and Re-optimization of Parameters", J. J. P. Stewart, J. Mol. Mod., 1:32, 19 (2013)
 https://link.springer.com/article/10.1007/s00894-012-1667-x

           Empirical Formula: C3 H6 Cl2  =    11 atoms



      MOLECULAR POINT GROUP   :   C2v 


 SINGLET STATE CALCULATION


      RHF CALCULATION, NO. OF DOUBLY OCCUPIED LEVELS = 16



          HEAT OF FORMATION =     -36.118072 KCALS/MOLE


          CARTESIAN COORDINATE DERIVATIVES

   NUMBER  ATOM         X            Y            Z

     1       C      0.002748     0.002459    -0.004710
     2       C     -0.007198     0.005363    -0.000924
     3       H      0.006503     0.000479    -0.005156
     4      Cl     -0.000015     0.009185    -0.001809
     5       H     -0.002229    -0.021939    -0.001356
     6       C     -0.006166     0.014686     0.009504
     7       H      0.010085     0.000009    -0.006773
     8       H     -0.004376    -0.000392     0.001545
     9       H     -0.004803    -0.013642     0.000662
    10      Cl      0.002152    -0.012964    -0.008947
    11       H      0.003301     0.016756     0.017963
 


          GRADIENT NORM =   0.04850


          TIME FOR SCF CALCULATION =    0.02

          TIME FOR DERIVATIVES     =    0.05

          MOLECULAR WEIGHT =  112.99



          ROTATIONAL CONSTANTS IN CM(-1)

          A =    0.49430201   B =    0.03029855   C =    0.02902346



           PRINCIPAL MOMENTS OF INERTIA IN UNITS OF 10**(-40)*GRAM-CM**2

          A =       56.6309   B =      923.8975   C =      964.4872


          ORIENTATION OF MOLECULE IN FORCE CALCULATION

    NO.       ATOM         X         Y         Z

     1          C      -1.4520   -0.0447    0.0847
     2          C       0.0677   -0.0447    0.0847
     3          H      -1.8814    0.9705    0.0847
     4         Cl      -2.0147   -0.8280    1.5811
     5          H      -1.8813   -0.6234   -0.7495
     6          C       0.5744    0.6277   -1.1805
     7          H       0.4600   -1.0839    0.1612
     8          H       0.4604    0.4735    0.9885
     9          H       0.2680    0.1007   -2.0989
    10         Cl       2.3544    0.6022   -1.1571
    11          H       0.2795    1.6874   -1.2510


    FIRST DERIVATIVES WILL BE USED IN THE CALCULATION OF SECOND DERIVATIVES

          ESTIMATED TIME TO COMPLETE CALCULATION =       10.31 SECONDS

    FOR POINT-GROUP C2v  THERE ARE   4 UNIQUE SYMMETRY FUNCTIONS.

 STEP:   1 TIME =     0.34 SECS, INTEGRAL =      0.34 TIME LEFT: 172799.59
 STEP:   2 TIME =     0.31 SECS, INTEGRAL =      0.65 TIME LEFT: 172799.27
 STEP:   3 TIME =     0.27 SECS, INTEGRAL =      0.91 TIME LEFT: 172799.01
 STEP:   4 TIME =     0.30 SECS, INTEGRAL =      1.22 TIME LEFT: 172798.70
 STEP:   5 TIME =     0.26 SECS, INTEGRAL =      1.48 TIME LEFT: 172798.45
 STEP:   6 TIME =     0.30 SECS, INTEGRAL =      1.77 TIME LEFT: 172798.15
 STEP:   7 TIME =     0.27 SECS, INTEGRAL =      2.04 TIME LEFT: 172797.88
 STEP:   8 TIME =     0.30 SECS, INTEGRAL =      2.34 TIME LEFT: 172797.58
 STEP:   9 TIME =     0.31 SECS, INTEGRAL =      2.66 TIME LEFT: 172797.27
 STEP:  10 TIME =     0.28 SECS, INTEGRAL =      2.94 TIME LEFT: 172796.98
 STEP:  11 TIME =     0.27 SECS, INTEGRAL =      3.20 TIME LEFT: 172796.72
 STEP:  12 TIME =     0.27 SECS, INTEGRAL =      3.47 TIME LEFT: 172796.45
 STEP:  13                       INTEGRAL =      3.47 TIME LEFT: 172796.45
 STEP:  14                       INTEGRAL =      3.47 TIME LEFT: 172796.45
 STEP:  15                       INTEGRAL =      3.47 TIME LEFT: 172796.45
 STEP:  16                       INTEGRAL =      3.47 TIME LEFT: 172796.45
 STEP:  17                       INTEGRAL =      3.47 TIME LEFT: 172796.45
 STEP:  18                       INTEGRAL =      3.47 TIME LEFT: 172796.45
 STEP:  19 TIME =     0.41 SECS, INTEGRAL =      3.88 TIME LEFT: 172796.05
 STEP:  20 TIME =     0.30 SECS, INTEGRAL =      4.17 TIME LEFT: 172795.75
 STEP:  21 TIME =     0.28 SECS, INTEGRAL =      4.45 TIME LEFT: 172795.47
 STEP:  22                       INTEGRAL =      4.45 TIME LEFT: 172795.47
 STEP:  23                       INTEGRAL =      4.45 TIME LEFT: 172795.47
 STEP:  24                       INTEGRAL =      4.45 TIME LEFT: 172795.47
 STEP:  25                       INTEGRAL =      4.45 TIME LEFT: 172795.47
 STEP:  26                       INTEGRAL =      4.45 TIME LEFT: 172795.47
 STEP:  27                       INTEGRAL =      4.45 TIME LEFT: 172795.47
 STEP:  28                       INTEGRAL =      4.45 TIME LEFT: 172795.47
 STEP:  29                       INTEGRAL =      4.45 TIME LEFT: 172795.47
 STEP:  30                       INTEGRAL =      4.45 TIME LEFT: 172795.47
 STEP:  31                       INTEGRAL =      4.45 TIME LEFT: 172795.47
 STEP:  32                       INTEGRAL =      4.45 TIME LEFT: 172795.47
 STEP:  33                       INTEGRAL =      4.45 TIME LEFT: 172795.47

(To convert to Hartree/Bohr^2, multiply by (10^(-21) x N x a0^2)/(4.184 x 627.51) =  0.0642)


           FORCE MATRIX IN MILLIDYNES/ANGSTROM


                  C  1       C  2       H  3      Cl  4       H  5       C  6
 ------------------------------------------------------------------------------
     C    1  10.371591
     C    2   3.213108  12.014393
     H    3   3.365265   0.659268   4.148850
    Cl    4   2.269832   0.610931   0.611305   3.718928
     H    5   3.365343   0.659403   0.444224   0.611443   4.148850
     C    6   0.661051   3.213537   0.026608   0.034419   0.026608  10.371591
     H    7   0.691174   3.285002   0.046731   0.042165   0.018416   0.690468
     H    8   0.690338   3.285076   0.018301   0.043063   0.046735   0.690982
     H    9   0.026566   0.659095   0.003043   0.007209   0.011418   3.365265
    Cl   10   0.034414   0.611334   0.007235   0.032099   0.007235   2.269832
     H   11   0.026031   0.659421   0.011418   0.007174   0.003043   3.365343


                  H  7       H  8       H  9      Cl 10       H 11
 ------------------------------------------------------------------
     H    7   4.211282
     H    8   0.439642   4.211282
     H    9   0.018285   0.046731   4.148850
    Cl   10   0.042972   0.042165   0.611305   3.718928
     H   11   0.046700   0.018416   0.444224   0.611443   4.148850


          HEAT OF FORMATION =     -36.118072 KCALS/MOLE

          ZERO POINT ENERGY      49.938 KCAL/MOL


           NORMAL COORDINATE ANALYSIS (Total motion = 1 Angstrom)


   Root No.       1         2         3         4         5         6         7         8

                 1 B1      1 A2      1 A1      2 A1      1 B2      2 B2      2 B1      3 A1  

                  73.3      80.3     143.8     302.0     367.2     741.3     788.5     825.4
  
           1    0.0001   -0.0003   -0.0591   -0.0663    0.0825    0.0284   -0.0001   -0.0364
           2    0.0140   -0.0753    0.0229   -0.0085   -0.0203    0.0754   -0.0161   -0.0677
           3    0.0074   -0.0399   -0.0429    0.0165    0.0384   -0.1437   -0.0085    0.1281
           4    0.0004   -0.0000   -0.0638   -0.0554    0.0757    0.0268   -0.0001   -0.0231
           5    0.1163   -0.0000    0.0424    0.0368    0.0248    0.0088   -0.0226    0.0153
           6    0.0615   -0.0000   -0.0796   -0.0692   -0.0474   -0.0168   -0.0119   -0.0288
           7   -0.0689   -0.0520   -0.0861   -0.0928    0.0806    0.0189    0.0877   -0.0473
           8   -0.0152   -0.0966    0.0099   -0.0222   -0.0184    0.0555    0.0295   -0.0606
           9   -0.0078   -0.1310   -0.0188    0.0452    0.0385   -0.0854    0.1010    0.0943
          10   -0.0001    0.0001    0.0843   -0.0432   -0.0343   -0.0165    0.0000    0.0092
          11   -0.0290    0.0160   -0.0014   -0.0300   -0.0068   -0.0277    0.0028    0.0193
          12   -0.0153    0.0084    0.0019    0.0568    0.0129    0.0528    0.0015   -0.0367
          13    0.0687    0.0510   -0.0861   -0.0928    0.0802    0.0194   -0.0872   -0.0472
          14   -0.0154   -0.1629    0.0105   -0.0243   -0.0208    0.0376    0.1005   -0.0436
          15   -0.0083   -0.0063   -0.0186    0.0440    0.0366   -0.0940   -0.0322    0.1032
          16    0.0001    0.0003   -0.0261    0.0395   -0.0134    0.1625   -0.0001    0.1487
          17    0.0140    0.0753    0.0337    0.0262    0.0434   -0.0136   -0.0161   -0.0069
          18    0.0074    0.0399   -0.0635   -0.0498   -0.0814    0.0237   -0.0085    0.0121
          19    0.0653    0.0450   -0.0615   -0.0546    0.1153   -0.0408    0.0905   -0.0255
          20    0.1485    0.0147    0.0398    0.0353    0.0377   -0.0133    0.0389    0.0104
          21    0.1819   -0.0282   -0.0774   -0.0687   -0.0727    0.0263    0.1648   -0.0354
          22   -0.0639   -0.0450   -0.0615   -0.0546    0.1157   -0.0413   -0.0898   -0.0255
          23    0.2343   -0.0147    0.0419    0.0372    0.0375   -0.0129    0.1586    0.0236
          24    0.0207    0.0282   -0.0763   -0.0677   -0.0723    0.0256   -0.0603   -0.0284
          25   -0.0232   -0.0489    0.0086    0.0784   -0.0133    0.1020   -0.0418    0.1211
          26   -0.0455    0.1636    0.0416    0.0318    0.0440    0.0003    0.1155    0.0116
          27    0.0492    0.0050   -0.0779   -0.0632   -0.0788    0.0183   -0.0607   -0.0021
          28   -0.0001   -0.0001   -0.0259    0.0750   -0.0251   -0.0617    0.0000   -0.0422
          29   -0.0290   -0.0160   -0.0374    0.0088   -0.0129    0.0023    0.0028    0.0026
          30   -0.0153   -0.0084    0.0710   -0.0172    0.0243   -0.0036    0.0015   -0.0045
          31    0.0230    0.0499    0.0086    0.0784   -0.0130    0.1014    0.0422    0.1210
          32    0.0150    0.0959    0.0410    0.0339    0.0411   -0.0168    0.0146   -0.0054
          33   -0.0654    0.1323   -0.0781   -0.0620   -0.0797    0.0083    0.1295   -0.0111


   Root No.       9        10        11        12        13        14        15        16

                 2 A2      3 B1      3 A2      4 A1      3 B2      4 B1      4 A2      4 B2  

                 872.6    1014.6    1083.3    1114.7    1156.0    1183.4    1222.6    1256.9
  
           1    0.0001   -0.0001   -0.0000    0.1338   -0.0858   -0.0001   -0.0001   -0.0223
           2    0.0393   -0.0317   -0.0041   -0.0013    0.0046   -0.0207   -0.0225   -0.0096
           3    0.0208   -0.0168   -0.0022    0.0016   -0.0085   -0.0110   -0.0119    0.0182
           4    0.0000    0.0001   -0.0000   -0.0922    0.1215    0.0002    0.0000    0.0055
           5    0.0000    0.0358    0.0000    0.0613    0.0399    0.0470    0.0000    0.0018
           6    0.0000    0.0190   -0.0000   -0.1152   -0.0761    0.0249   -0.0000   -0.0035
           7   -0.1001   -0.0414   -0.1481    0.0445   -0.0982    0.1590    0.0797    0.0876
           8   -0.0166   -0.0425   -0.0698   -0.0224   -0.0150    0.0559    0.0143    0.0403
           9   -0.1511    0.1490    0.1197    0.0769    0.0380   -0.0525   -0.0100   -0.1823
          10   -0.0000    0.0000    0.0000   -0.0032   -0.0018    0.0000   -0.0000    0.0005
          11   -0.0046    0.0045    0.0035    0.0001    0.0004   -0.0015   -0.0005   -0.0022
          12   -0.0024    0.0024    0.0018   -0.0000   -0.0006   -0.0008   -0.0003    0.0042
          13    0.0995    0.0416    0.1480    0.0443   -0.0980   -0.1589   -0.0797    0.0880
          14   -0.1349    0.0991    0.0588   -0.0512   -0.0231   -0.0111    0.0002    0.1273
          15    0.0710   -0.1191   -0.1255    0.0617    0.0341    0.0762    0.0177   -0.1362
          16   -0.0001   -0.0001    0.0000   -0.0427   -0.0195   -0.0001    0.0001   -0.0268
          17   -0.0393   -0.0317    0.0041   -0.0592   -0.0394   -0.0207    0.0225   -0.0066
          18   -0.0208   -0.0167    0.0022    0.1121    0.0743   -0.0110    0.0119    0.0125
          19   -0.0704   -0.0599   -0.0701   -0.0577    0.1019   -0.0524   -0.2537    0.0401
          20   -0.0231   -0.0104   -0.0230    0.0364    0.0334    0.0090   -0.0832    0.0132
          21    0.0441   -0.1011    0.0439   -0.0730   -0.0636   -0.0789    0.1589   -0.0251
          22    0.0704    0.0596    0.0701   -0.0576    0.1017    0.0522    0.2537    0.0401
          23    0.0231   -0.0898    0.0230    0.0401    0.0336   -0.0605    0.0832    0.0132
          24   -0.0441    0.0481   -0.0439   -0.0710   -0.0638    0.0517   -0.1589   -0.0251
          25   -0.0851   -0.1567    0.1799    0.0591   -0.0710    0.1215   -0.0413    0.1988
          26    0.1396    0.0341    0.0487   -0.0464   -0.0330    0.0808   -0.0399   -0.0336
          27   -0.0801    0.0051   -0.0799    0.0524    0.0720   -0.0994    0.0581   -0.0435
          28    0.0000    0.0000   -0.0000    0.0010    0.0001   -0.0000    0.0000   -0.0043
          29    0.0046    0.0045   -0.0035    0.0014   -0.0008   -0.0015    0.0005    0.0010
          30    0.0024    0.0024   -0.0018   -0.0027    0.0017   -0.0008    0.0003   -0.0018
          31    0.0856    0.1569   -0.1799    0.0593   -0.0713   -0.1213    0.0412    0.1991
          32    0.0119    0.0225   -0.0377   -0.0176   -0.0409   -0.0360    0.0253    0.0536
          33    0.1602    0.0248    0.0857    0.0676    0.0675    0.1231   -0.0657    0.0025


   Root No.      17        18        19        20        21        22        23        24

                 5 A1      6 A1      5 B2      7 A1      6 B2      5 B1      5 A2      6 B1  

                1275.5    1308.3    1316.6    1334.5    1366.4    2630.9    2644.9    2666.5
  
           1    0.0002   -0.0035    0.0240   -0.0239   -0.0111    0.0001    0.0001   -0.0001
           2    0.0102    0.0053   -0.0015   -0.0002    0.0087    0.0141    0.0254   -0.0158
           3   -0.0192   -0.0100    0.0026    0.0006   -0.0164    0.0074    0.0134   -0.0084
           4    0.0055    0.0192   -0.0085   -0.0139   -0.0477   -0.0001   -0.0000   -0.0001
           5   -0.0037   -0.0127   -0.0028    0.0092   -0.0156   -0.0187   -0.0000   -0.0212
           6    0.0069    0.0239    0.0053   -0.0173    0.0299   -0.0099   -0.0000   -0.0112
           7   -0.0690    0.0304   -0.1578    0.1649    0.0259    0.0577    0.0993   -0.0596
           8   -0.0242    0.0138   -0.0732    0.0783    0.0262   -0.1255   -0.2118    0.1239
           9    0.1584    0.0988   -0.0994    0.0604    0.0509    0.0040    0.0068   -0.0038
          10   -0.0002    0.0001   -0.0008    0.0007    0.0001   -0.0000    0.0000   -0.0000
          11    0.0018    0.0006   -0.0000   -0.0003   -0.0000    0.0001    0.0002   -0.0002
          12   -0.0034   -0.0011    0.0001    0.0006    0.0001    0.0001    0.0001   -0.0001
          13   -0.0694    0.0300   -0.1571    0.1642    0.0256   -0.0585   -0.1005    0.0603
          14   -0.1170   -0.0896    0.1242   -0.0950   -0.0571   -0.0670   -0.1130    0.0662
          15    0.1093    0.0440    0.0051   -0.0313    0.0069   -0.1059   -0.1786    0.1044
          16   -0.0206   -0.0095    0.0052    0.0086    0.0138    0.0001   -0.0001   -0.0001
          17    0.0034    0.0033    0.0110    0.0104   -0.0079    0.0141   -0.0254   -0.0158
          18   -0.0062   -0.0062   -0.0209   -0.0198    0.0147    0.0074   -0.0134   -0.0083
          19    0.0575   -0.1150    0.0565    0.0289    0.2639   -0.0735    0.0024   -0.0735
          20    0.0226   -0.0752    0.0185    0.0346    0.0865    0.1812    0.0008    0.1790
          21    0.1036   -0.2229   -0.0354    0.0642   -0.1653   -0.0226   -0.0015   -0.0237
          22    0.0571   -0.1139    0.0564    0.0285    0.2639    0.0745   -0.0024    0.0745
          23   -0.0987    0.2272    0.0185   -0.0727    0.0866    0.0829   -0.0008    0.0807
          24    0.0395   -0.0629   -0.0354    0.0075   -0.1654    0.1623    0.0015    0.1611
          25    0.1656    0.0659   -0.0023   -0.0394   -0.0222   -0.0397    0.0663    0.0381
          26   -0.0400   -0.0778   -0.1765   -0.1617    0.0581   -0.0608    0.1018    0.0590
          27   -0.0379    0.0215    0.0948    0.0963   -0.0091   -0.1176    0.2000    0.1182
          28   -0.0035   -0.0012   -0.0003    0.0005   -0.0001    0.0000   -0.0000    0.0000
          29    0.0007    0.0002   -0.0003   -0.0004    0.0001    0.0001   -0.0002   -0.0002
          30   -0.0013   -0.0003    0.0006    0.0008   -0.0001    0.0001   -0.0001   -0.0001
          31    0.1659    0.0663   -0.0016   -0.0387   -0.0225    0.0390   -0.0651   -0.0374
          32    0.0529    0.0256    0.0209    0.0116   -0.0251   -0.1317    0.2230    0.1312
          33    0.0112    0.0762    0.1992    0.1880   -0.0532    0.0158   -0.0282   -0.0177


   Root No.      25        26        27

                 8 A1      7 B2      9 A1  

                2710.4    2712.6    2739.1
  
           1    0.0081   -0.0133    0.0090
           2   -0.0049    0.0067   -0.0030
           3    0.0091   -0.0123    0.0056
           4   -0.0043   -0.0033    0.0145
           5    0.0029   -0.0011   -0.0096
           6   -0.0054    0.0021    0.0181
           7   -0.0686    0.0921   -0.0400
           8    0.1643   -0.2188    0.0895
           9    0.0032   -0.0042    0.0023
          10   -0.0001    0.0001    0.0000
          11   -0.0002    0.0003   -0.0001
          12    0.0004   -0.0006    0.0002
          13   -0.0695    0.0932   -0.0405
          14   -0.0947    0.1266   -0.0520
          15   -0.1338    0.1783   -0.0726
          16    0.0071    0.0088    0.0030
          17   -0.0052   -0.0080   -0.0050
          18    0.0098    0.0153    0.0094
          19    0.0436    0.0021   -0.0977
          20   -0.1186    0.0006    0.2618
          21    0.0075   -0.0016   -0.0189
          22    0.0442    0.0023   -0.0991
          23    0.0603    0.0005   -0.1310
          24    0.1021   -0.0013   -0.2268
          25   -0.0472   -0.0627   -0.0244
          26   -0.0874   -0.1160   -0.0467
          27   -0.1477   -0.1976   -0.0827
          28    0.0005    0.0007    0.0002
          29   -0.0000   -0.0001   -0.0001
          30    0.0001    0.0001    0.0001
          31   -0.0463   -0.0612   -0.0239
          32    0.1715    0.2293    0.0948
          33   -0.0108   -0.0146   -0.0078


           MASS-WEIGHTED COORDINATE ANALYSIS (NORMAL COORDINATES)


   Root No.       1         2         3         4         5         6         7         8

                 1 B1      1 A2      1 A1      2 A1      1 B2      2 B2      2 B1      3 A1  

                  73.3      80.3     143.8     302.0     367.2     741.3     788.5     825.4
  
           1    0.0003   -0.0017   -0.2225   -0.2721    0.4110    0.0992   -0.0005   -0.1460
           2    0.0737   -0.4606    0.0863   -0.0347   -0.1011    0.2635   -0.1369   -0.2714
           3    0.0390   -0.2437   -0.1616    0.0676    0.1912   -0.5018   -0.0724    0.5137
           4    0.0023   -0.0000   -0.2403   -0.2275    0.3770    0.0937   -0.0007   -0.0925
           5    0.6145   -0.0000    0.1596    0.1511    0.1234    0.0309   -0.1919    0.0615
           6    0.3251   -0.0000   -0.3000   -0.2840   -0.2363   -0.0586   -0.1015   -0.1155
           7   -0.1054   -0.0920   -0.0940   -0.1104    0.1163    0.0192    0.2159   -0.0549
           8   -0.0232   -0.1710    0.0108   -0.0264   -0.0266    0.0561    0.0725   -0.0704
           9   -0.0120   -0.2320   -0.0205    0.0537    0.0555   -0.0864    0.2485    0.1095
          10   -0.0010    0.0006    0.5457   -0.3050   -0.2935   -0.0993    0.0002    0.0634
          11   -0.2633    0.1676   -0.0089   -0.2112   -0.0582   -0.1662    0.0406    0.1329
          12   -0.1393    0.0887    0.0122    0.4009    0.1100    0.3169    0.0215   -0.2530
          13    0.1052    0.0903   -0.0940   -0.1104    0.1158    0.0197   -0.2147   -0.0548
          14   -0.0236   -0.2885    0.0115   -0.0289   -0.0300    0.0380    0.2475   -0.0507
          15   -0.0128   -0.0112   -0.0203    0.0524    0.0529   -0.0951   -0.0792    0.1199
          16    0.0003    0.0017   -0.0985    0.1623   -0.0669    0.5674   -0.0005    0.5964
          17    0.0737    0.4606    0.1271    0.1077    0.2163   -0.0475   -0.1369   -0.0278
          18    0.0390    0.2437   -0.2392   -0.2045   -0.4055    0.0828   -0.0724    0.0487
          19    0.0999    0.0796   -0.0672   -0.0650    0.1665   -0.0412    0.2227   -0.0297
          20    0.2273    0.0261    0.0435    0.0420    0.0545   -0.0134    0.0956    0.0120
          21    0.2784   -0.0499   -0.0845   -0.0818   -0.1050    0.0266    0.4055   -0.0411
          22   -0.0977   -0.0796   -0.0672   -0.0650    0.1670   -0.0418   -0.2209   -0.0297
          23    0.3586   -0.0261    0.0457    0.0443    0.0541   -0.0130    0.3903    0.0274
          24    0.0316    0.0499   -0.0833   -0.0805   -0.1043    0.0259   -0.1484   -0.0330
          25   -0.0354   -0.0866    0.0094    0.0932   -0.0192    0.1032   -0.1028    0.1406
          26   -0.0697    0.2897    0.0454    0.0379    0.0634    0.0003    0.2841    0.0135
          27    0.0753    0.0089   -0.0850   -0.0751   -0.1137    0.0185   -0.1493   -0.0025
          28   -0.0010   -0.0006   -0.1679    0.5289   -0.2152   -0.3705    0.0001   -0.2906
          29   -0.2633   -0.1676   -0.2422    0.0624   -0.1101    0.0139    0.0406    0.0180
          30   -0.1393   -0.0887    0.4596   -0.1213    0.2078   -0.0217    0.0214   -0.0307
          31    0.0353    0.0883    0.0094    0.0932   -0.0187    0.1026    0.1039    0.1405
          32    0.0229    0.1698    0.0448    0.0403    0.0594   -0.0170    0.0358   -0.0063
          33   -0.1001    0.2343   -0.0853   -0.0738   -0.1150    0.0084    0.3186   -0.0129


   Root No.       9        10        11        12        13        14        15        16

                 2 A2      3 B1      3 A2      4 A1      3 B2      4 B1      4 A2      4 B2  

                 872.6    1014.6    1083.3    1114.7    1156.0    1183.4    1222.6    1256.9
  
           1    0.0011   -0.0010   -0.0001    0.5212   -0.4113   -0.0006   -0.0006   -0.1723
           2    0.3060   -0.2556   -0.0333   -0.0050    0.0221   -0.1642   -0.1603   -0.0743
           3    0.1619   -0.1353   -0.0176    0.0062   -0.0405   -0.0868   -0.0848    0.1408
           4    0.0000    0.0011   -0.0000   -0.3594    0.5829    0.0014    0.0000    0.0427
           5    0.0000    0.2894    0.0000    0.2387    0.1911    0.3724    0.0000    0.0140
           6    0.0000    0.1531   -0.0000   -0.4487   -0.3651    0.1970   -0.0000   -0.0267
           7   -0.2259   -0.0969   -0.3482    0.0502   -0.1364    0.3651    0.1644    0.1964
           8   -0.0375   -0.0994   -0.1642   -0.0253   -0.0208    0.1282    0.0295    0.0904
           9   -0.3410    0.3486    0.2815    0.0868    0.0528   -0.1206   -0.0206   -0.4087
          10   -0.0002    0.0001    0.0002   -0.0214   -0.0147    0.0000   -0.0000    0.0066
          11   -0.0617    0.0621    0.0485    0.0006    0.0034   -0.0202   -0.0060   -0.0294
          12   -0.0327    0.0327    0.0257   -0.0003   -0.0053   -0.0106   -0.0032    0.0560
          13    0.2246    0.0974    0.3481    0.0500   -0.1362   -0.3647   -0.1643    0.1972
          14   -0.3043    0.2317    0.1383   -0.0577   -0.0321   -0.0254    0.0005    0.2855
          15    0.1602   -0.2786   -0.2952    0.0696    0.0473    0.1750    0.0365   -0.3053
          16   -0.0011   -0.0009    0.0001   -0.1664   -0.0936   -0.0007    0.0006   -0.2075
          17   -0.3060   -0.2557    0.0333   -0.2306   -0.1889   -0.1642    0.1603   -0.0508
          18   -0.1619   -0.1352    0.0176    0.4369    0.3562   -0.0869    0.0848    0.0968
          19   -0.1589   -0.1402   -0.1648   -0.0651    0.1416   -0.1202   -0.5231    0.0900
          20   -0.0521   -0.0244   -0.0540    0.0411    0.0465    0.0206   -0.1714    0.0295
          21    0.0996   -0.2366    0.1033   -0.0824   -0.0883   -0.1811    0.3277   -0.0562
          22    0.1589    0.1394    0.1648   -0.0650    0.1413    0.1198    0.5231    0.0898
          23    0.0521   -0.2101    0.0540    0.0453    0.0467   -0.1388    0.1714    0.0296
          24   -0.0996    0.1125   -0.1033   -0.0801   -0.0887    0.1186   -0.3277   -0.0564
          25   -0.1919   -0.3664    0.4231    0.0667   -0.0987    0.2789   -0.0850    0.4457
          26    0.3150    0.0797    0.1144   -0.0523   -0.0459    0.1855   -0.0822   -0.0752
          27   -0.1807    0.0120   -0.1879    0.0591    0.1000   -0.2282    0.1197   -0.0974
          28    0.0002    0.0003   -0.0002    0.0066    0.0010   -0.0002    0.0000   -0.0575
          29    0.0617    0.0620   -0.0485    0.0091   -0.0070   -0.0201    0.0060    0.0131
          30    0.0327    0.0330   -0.0257   -0.0182    0.0144   -0.0108    0.0031   -0.0240
          31    0.1932    0.3670   -0.4230    0.0669   -0.0990   -0.2785    0.0849    0.4463
          32    0.0268    0.0526   -0.0886   -0.0198   -0.0568   -0.0827    0.0522    0.1201
          33    0.3615    0.0580    0.2016    0.0763    0.0937    0.2826   -0.1356    0.0057


   Root No.      17        18        19        20        21        22        23        24

                 5 A1      6 A1      5 B2      7 A1      6 B2      5 B1      5 A2      6 B1  

                1275.5    1308.3    1316.6    1334.5    1366.4    2630.9    2644.9    2666.5
  
           1    0.0018   -0.0270    0.1926   -0.1944   -0.0727    0.0004    0.0007   -0.0005
           2    0.0865    0.0411   -0.0119   -0.0017    0.0570    0.1194    0.1793   -0.1336
           3   -0.1637   -0.0776    0.0211    0.0046   -0.1079    0.0632    0.0948   -0.0707
           4    0.0471    0.1490   -0.0685   -0.1128   -0.3130   -0.0006   -0.0000   -0.0007
           5   -0.0313   -0.0990   -0.0224    0.0749   -0.1025   -0.1591   -0.0000   -0.1798
           6    0.0588    0.1861    0.0429   -0.1408    0.1961   -0.0842   -0.0000   -0.0951
           7   -0.1703    0.0684   -0.3665    0.3877    0.0492    0.1420    0.2032   -0.1462
           8   -0.0596    0.0312   -0.1700    0.1842    0.0497   -0.3087   -0.4335    0.3040
           9    0.3909    0.2224   -0.2308    0.1421    0.0968    0.0099    0.0139   -0.0093
          10   -0.0030    0.0013   -0.0110    0.0098    0.0010   -0.0000    0.0000   -0.0001
          11    0.0259    0.0074   -0.0005   -0.0047   -0.0004    0.0019    0.0029   -0.0022
          12   -0.0493   -0.0143    0.0011    0.0091    0.0012    0.0010    0.0015   -0.0012
          13   -0.1712    0.0676   -0.3648    0.3862    0.0488   -0.1437   -0.2057    0.1479
          14   -0.2887   -0.2018    0.2885   -0.2233   -0.1086   -0.1647   -0.2312    0.1625
          15    0.2697    0.0991    0.0118   -0.0735    0.0132   -0.2604   -0.3656    0.2561
          16   -0.1752   -0.0738    0.0414    0.0694    0.0908    0.0005   -0.0007   -0.0005
          17    0.0286    0.0258    0.0885    0.0847   -0.0516    0.1194   -0.1793   -0.1337
          18   -0.0528   -0.0483   -0.1677   -0.1607    0.0962    0.0632   -0.0948   -0.0707
          19    0.1419   -0.2590    0.1311    0.0680    0.5019   -0.1808    0.0049   -0.1803
          20    0.0557   -0.1692    0.0430    0.0813    0.1645    0.4456    0.0016    0.4391
          21    0.2556   -0.5020   -0.0821    0.1510   -0.3143   -0.0555   -0.0031   -0.0581
          22    0.1408   -0.2565    0.1311    0.0671    0.5018    0.1832   -0.0049    0.1827
          23   -0.2435    0.5117    0.0430   -0.1710    0.1646    0.2038   -0.0016    0.1980
          24    0.0974   -0.1417   -0.0821    0.0176   -0.3144    0.3991    0.0031    0.3952
          25    0.4085    0.1485   -0.0054   -0.0926   -0.0421   -0.0976    0.1358    0.0936
          26   -0.0987   -0.1753   -0.4099   -0.3802    0.1104   -0.1496    0.2083    0.1447
          27   -0.0935    0.0484    0.2201    0.2264   -0.0173   -0.2893    0.4094    0.2901
          28   -0.0515   -0.0156   -0.0048    0.0064   -0.0008    0.0000   -0.0000    0.0000
          29    0.0104    0.0020   -0.0046   -0.0060    0.0008    0.0019   -0.0029   -0.0023
          30   -0.0187   -0.0036    0.0088    0.0110   -0.0011    0.0010   -0.0015   -0.0011
          31    0.4093    0.1494   -0.0037   -0.0911   -0.0428    0.0959   -0.1333   -0.0918
          32    0.1304    0.0577    0.0486    0.0272   -0.0478   -0.3239    0.4564    0.3218
          33    0.0277    0.1717    0.4627    0.4420   -0.1012    0.0388   -0.0577   -0.0433


   Root No.      25        26        27

                 8 A1      7 B2      9 A1  

                2710.4    2712.6    2739.1
  
           1    0.0693   -0.0947    0.0688
           2   -0.0416    0.0479   -0.0229
           3    0.0780   -0.0878    0.0429
           4   -0.0370   -0.0238    0.1103
           5    0.0246   -0.0079   -0.0733
           6   -0.0462    0.0148    0.1377
           7   -0.1695    0.1901   -0.0881
           8    0.4061   -0.4514    0.1974
           9    0.0079   -0.0086    0.0050
          10   -0.0011    0.0012    0.0004
          11   -0.0034    0.0034   -0.0015
          12    0.0063   -0.0077    0.0031
          13   -0.1718    0.1923   -0.0893
          14   -0.2341    0.2611   -0.1146
          15   -0.3308    0.3677   -0.1601
          16    0.0602    0.0627    0.0229
          17   -0.0446   -0.0567   -0.0380
          18    0.0837    0.1088    0.0716
          19    0.1078    0.0044   -0.2153
          20   -0.2932    0.0013    0.5771
          21    0.0186   -0.0032   -0.0418
          22    0.1094    0.0047   -0.2185
          23    0.1490    0.0011   -0.2889
          24    0.2525   -0.0027   -0.5000
          25   -0.1167   -0.1294   -0.0539
          26   -0.2160   -0.2393   -0.1030
          27   -0.3652   -0.4076   -0.1822
          28    0.0071    0.0083    0.0031
          29   -0.0006   -0.0014   -0.0008
          30    0.0012    0.0011    0.0012
          31   -0.1144   -0.1263   -0.0527
          32    0.4240    0.4729    0.2089
          33   -0.0266   -0.0302   -0.0172


          DESCRIPTION OF VIBRATIONS


 VIBRATION          1    1B1          ATOM PAIR      ENERGY CONTRIBUTION    RADIAL
 FREQUENCY            73.32         C  1 -- C  2         +25.8% (894.2%)      0.0%
 TRANSITION DIPOLE   0.1552         C  2 -- C  6         +25.8% (894.2%)      0.0%
 TRAVEL (Ang.)       0.5198         C  2 -- H  8         +21.0% (807.6%)     95.4%
 REDUCED MASS        3.4034         C  2 -- H  7         +21.0% (807.6%)     95.3%
 EFFECTIVE MASS    490.5284
 FORCE CONSTANT      0.0108

 VIBRATION          2    1A2          ATOM PAIR      ENERGY CONTRIBUTION    RADIAL
 FREQUENCY            80.31         C  6 -- Cl10         +13.8% (613.2%)      0.0%
 TRANSITION DIPOLE   0.0000         C  1 -- Cl 4         +13.8% (613.2%)      0.0%
 TRAVEL (Ang.)       0.6654         C  2 -- C  6         +13.5% (605.1%)      0.0%
 REDUCED MASS        1.8962         C  1 -- C  2         +13.5% (605.1%)      0.0%
 EFFECTIVE MASS    471.3043         C  6 -- H  9         +10.9% (544.9%)     98.9%
 FORCE CONSTANT      0.0072         C  6 -- H 11         +10.9% (544.9%)     99.1%
                            C  1 -- H  3         +10.9% (544.9%)     98.9%
                            C  1 -- H  5         +10.9% (544.9%)     99.1%

 VIBRATION          3    1A1          ATOM PAIR      ENERGY CONTRIBUTION    RADIAL
 FREQUENCY           143.83         C  2 -- C  6         +16.8% (301.9%)      1.3%
 TRANSITION DIPOLE   0.3740         C  1 -- C  2         +16.8% (301.9%)      1.3%
 TRAVEL (Ang.)       0.2621         C  2 -- H  7         +13.4% (269.6%)     37.7%
 REDUCED MASS        6.8254         C  2 -- H  8         +13.4% (269.6%)     37.7%
 EFFECTIVE MASS     86.6261
 FORCE CONSTANT      0.0832

 VIBRATION          4    2A1          ATOM PAIR      ENERGY CONTRIBUTION    RADIAL
 FREQUENCY           302.05         C  1 -- C  2         +16.3% (140.5%)      1.2%
 TRANSITION DIPOLE   0.2189         C  2 -- C  6         +16.3% (140.5%)      1.2%
 TRAVEL (Ang.)       0.1818         C  2 -- H  7         +12.2% (121.7%)     37.8%
 REDUCED MASS        6.7574         C  2 -- H  8         +12.2% (121.7%)     37.7%
 EFFECTIVE MASS     42.7558
 FORCE CONSTANT      0.3632

 VIBRATION          5    1B2          ATOM PAIR      ENERGY CONTRIBUTION    RADIAL
 FREQUENCY           367.24         C  1 -- C  2         +14.0% (150.7%)      0.5%
 TRANSITION DIPOLE   0.4668         C  2 -- C  6         +14.0% (150.7%)      0.5%
 TRAVEL (Ang.)       0.2766         C  2 -- H  7         +10.3% (129.5%)      0.0%
 REDUCED MASS        2.4002         C  2 -- H  8         +10.3% (129.5%)      0.0%
 EFFECTIVE MASS     29.0022
 FORCE CONSTANT      0.1907

 VIBRATION          6    2B2          ATOM PAIR      ENERGY CONTRIBUTION    RADIAL
 FREQUENCY           741.32         C  1 -- Cl 4         +16.9% ( 77.3%)     98.8%
 TRANSITION DIPOLE   2.1433         C  6 -- Cl10         +16.9% ( 77.3%)     98.8%
 TRAVEL (Ang.)       0.1511         C  1 -- C  2         +11.6% ( 64.1%)      0.0%
 REDUCED MASS        3.9839         C  2 -- C  6         +11.6% ( 64.1%)      0.0%
 EFFECTIVE MASS     17.2336         C  1 -- H  3         +10.2% ( 60.3%)     11.5%
 FORCE CONSTANT      1.2899         C  6 -- H  9         +10.2% ( 60.3%)     11.5%
                            C  6 -- H 11         +10.2% ( 60.2%)     11.3%
                            C  1 -- H  5         +10.2% ( 60.2%)     11.3%

 VIBRATION          7    2B1          ATOM PAIR      ENERGY CONTRIBUTION    RADIAL
 FREQUENCY           788.48         C  2 -- H  8         +22.3% ( 72.1%)      6.2%
 TRANSITION DIPOLE   0.5355         C  2 -- H  7         +22.3% ( 72.1%)      6.1%
 TRAVEL (Ang.)       0.6653         C  6 -- H 11         +11.2% ( 51.2%)      6.6%
 REDUCED MASS        0.1932         C  1 -- H  5         +11.2% ( 51.2%)      6.6%
 EFFECTIVE MASS      2.1854         C  6 -- H  9         +11.2% ( 51.2%)      6.1%
 FORCE CONSTANT      0.0708         C  1 -- H  3         +11.2% ( 51.2%)      6.1%

 VIBRATION          8    3A1          ATOM PAIR      ENERGY CONTRIBUTION    RADIAL
 FREQUENCY           825.37         C  6 -- Cl10         +15.2% ( 68.9%)     99.3%
 TRANSITION DIPOLE   1.0219         C  1 -- Cl 4         +15.2% ( 68.9%)     99.3%
 TRAVEL (Ang.)       0.1502         C  2 -- C  6         +13.1% ( 64.0%)      0.6%
 REDUCED MASS        3.6233         C  1 -- C  2         +13.1% ( 64.0%)      0.6%
 EFFECTIVE MASS     14.8771         C  6 -- H 11         +10.3% ( 56.8%)     10.1%
 FORCE CONSTANT      1.4543         C  1 -- H  5         +10.3% ( 56.8%)     10.1%
                            C  1 -- H  3         +10.3% ( 56.8%)     10.6%
                            C  6 -- H  9         +10.3% ( 56.8%)     10.6%

 VIBRATION          9    2A2          ATOM PAIR      ENERGY CONTRIBUTION    RADIAL
 FREQUENCY           872.64         C  6 -- H 11         +17.6% ( 64.3%)     13.0%
 TRANSITION DIPOLE   0.0000         C  1 -- H  3         +17.6% ( 64.3%)     12.3%
 TRAVEL (Ang.)       0.4080         C  1 -- H  5         +17.6% ( 64.3%)     13.0%
 REDUCED MASS        0.4642         C  6 -- H  9         +17.6% ( 64.3%)     12.3%
 EFFECTIVE MASS      3.9865
 FORCE CONSTANT      0.2083

 VIBRATION         10    3B1          ATOM PAIR      ENERGY CONTRIBUTION    RADIAL
 FREQUENCY          1014.62         C  1 -- H  5         +12.8% ( 48.6%)     12.9%
 TRANSITION DIPOLE   0.1159         C  6 -- H 11         +12.8% ( 48.6%)     12.9%
 TRAVEL (Ang.)       0.4079         C  1 -- H  3         +12.8% ( 48.6%)     12.3%
 REDUCED MASS        0.3995         C  6 -- H  9         +12.8% ( 48.6%)     12.3%
 EFFECTIVE MASS      4.2370         C  2 -- H  7         +10.3% ( 43.7%)     17.3%
 FORCE CONSTANT      0.2423         C  2 -- H  8         +10.3% ( 43.7%)     17.4%
                            C  1 -- C  2         +10.3% ( 43.6%)      0.0%
                            C  2 -- C  6         +10.3% ( 43.6%)      0.0%

 VIBRATION         11    3A2          ATOM PAIR      ENERGY CONTRIBUTION    RADIAL
 FREQUENCY          1083.31         C  6 -- H  9         +22.6% ( 51.0%)      0.1%
 TRANSITION DIPOLE   0.0000         C  1 -- H  5         +22.6% ( 51.0%)      0.1%
 TRAVEL (Ang.)       0.5412         C  1 -- H  3         +22.6% ( 51.0%)      0.1%
 REDUCED MASS        0.2125         C  6 -- H 11         +22.6% ( 51.0%)      0.1%
 EFFECTIVE MASS      1.0990
 FORCE CONSTANT      0.1470

 VIBRATION         12    4A1          ATOM PAIR      ENERGY CONTRIBUTION    RADIAL
 FREQUENCY          1114.72         C  1 -- C  2         +21.6% ( 81.0%)     74.4%
 TRANSITION DIPOLE   0.1856         C  2 -- C  6         +21.6% ( 81.0%)     74.4%
 TRAVEL (Ang.)       0.1300         C  2 -- H  7          +8.8% ( 51.8%)     37.8%
 REDUCED MASS        3.5777         C  2 -- H  8          +8.8% ( 51.8%)     37.7%
 EFFECTIVE MASS     11.8218
 FORCE CONSTANT      2.6193

 VIBRATION         13    3B2          ATOM PAIR      ENERGY CONTRIBUTION    RADIAL
 FREQUENCY          1155.98         C  2 -- C  6         +23.7% ( 80.7%)     88.1%
 TRANSITION DIPOLE   0.5724         C  1 -- C  2         +23.7% ( 80.7%)     88.1%
 TRAVEL (Ang.)       0.1235         C  2 -- H  7         +13.4% ( 60.7%)      0.0%
 REDUCED MASS        3.8275         C  2 -- H  8         +13.4% ( 60.7%)      0.0%
 EFFECTIVE MASS     10.7075
 FORCE CONSTANT      3.0135

 VIBRATION         14    4B1          ATOM PAIR      ENERGY CONTRIBUTION    RADIAL
 FREQUENCY          1183.41         C  1 -- H  5         +13.2% ( 42.6%)      7.6%
 TRANSITION DIPOLE   0.0012         C  6 -- H 11         +13.2% ( 42.6%)      7.6%
 TRAVEL (Ang.)       0.3309         C  6 -- H  9         +13.2% ( 42.6%)      7.3%
 REDUCED MASS        0.5205         C  1 -- H  3         +13.2% ( 42.6%)      7.3%
 EFFECTIVE MASS      3.3753         C  2 -- C  6         +11.1% ( 39.0%)      0.0%
 FORCE CONSTANT      0.4295         C  1 -- C  2         +11.1% ( 39.0%)      0.0%
                            C  2 -- H  8         +10.9% ( 38.6%)     24.0%
                            C  2 -- H  7         +10.9% ( 38.6%)     23.9%

 VIBRATION         15    4A2          ATOM PAIR      ENERGY CONTRIBUTION    RADIAL
 FREQUENCY          1222.58         C  2 -- H  8         +38.6% ( 64.3%)      0.0%
 TRANSITION DIPOLE   0.0000         C  2 -- H  7         +38.6% ( 64.3%)      0.0%
 TRAVEL (Ang.)       0.3867         C  6 -- H  9          +3.9% ( 20.5%)     18.2%
 REDUCED MASS        0.3688         C  1 -- H  5          +3.9% ( 20.5%)     18.8%
 EFFECTIVE MASS      1.5631
 FORCE CONSTANT      0.3248

 VIBRATION         16    4B2          ATOM PAIR      ENERGY CONTRIBUTION    RADIAL
 FREQUENCY          1256.92         C  6 -- H  9         +21.7% ( 47.5%)      0.0%
 TRANSITION DIPOLE   0.0582         C  1 -- H  3         +21.7% ( 47.5%)      0.0%
 TRAVEL (Ang.)       0.4556         C  6 -- H 11         +21.7% ( 47.5%)      0.0%
 REDUCED MASS        0.2584         C  1 -- H  5         +21.7% ( 47.5%)      0.0%
 EFFECTIVE MASS      1.9473
 FORCE CONSTANT      0.2405

 VIBRATION         17    5A1          ATOM PAIR      ENERGY CONTRIBUTION    RADIAL
 FREQUENCY          1275.45         C  6 -- H  9         +19.8% ( 41.8%)      1.3%
 TRANSITION DIPOLE   0.2391         C  1 -- H  3         +19.8% ( 41.8%)      1.3%
 TRAVEL (Ang.)       0.5364         C  1 -- H  5         +19.8% ( 41.8%)      1.1%
 REDUCED MASS        0.1838         C  6 -- H 11         +19.8% ( 41.8%)      1.1%
 EFFECTIVE MASS      1.6448
 FORCE CONSTANT      0.1761

 VIBRATION         18    6A1          ATOM PAIR      ENERGY CONTRIBUTION    RADIAL
 FREQUENCY          1308.32         C  2 -- H  8         +33.7% ( 53.6%)      2.4%
 TRANSITION DIPOLE   0.2883         C  2 -- H  7         +33.7% ( 53.6%)      2.4%
 TRAVEL (Ang.)       0.4071         C  1 -- C  2          +5.6% ( 21.9%)     25.8%
 REDUCED MASS        0.3110         C  2 -- C  6          +5.6% ( 21.9%)     25.8%
 EFFECTIVE MASS      1.7673
 FORCE CONSTANT      0.3137

 VIBRATION         19    5B2          ATOM PAIR      ENERGY CONTRIBUTION    RADIAL
 FREQUENCY          1316.61         C  1 -- H  3         +20.5% ( 43.3%)      1.3%
 TRANSITION DIPOLE   0.1335         C  6 -- H  9         +20.5% ( 43.3%)      1.3%
 TRAVEL (Ang.)       0.4772         C  1 -- H  5         +20.5% ( 43.3%)      1.1%
 REDUCED MASS        0.2249         C  6 -- H 11         +20.5% ( 43.3%)      1.1%
 EFFECTIVE MASS      1.7559
 FORCE CONSTANT      0.2297

 VIBRATION         20    7A1          ATOM PAIR      ENERGY CONTRIBUTION    RADIAL
 FREQUENCY          1334.53         C  1 -- H  3         +19.7% ( 42.5%)      0.8%
 TRANSITION DIPOLE   0.6552         C  6 -- H  9         +19.7% ( 42.5%)      0.8%
 TRAVEL (Ang.)       0.4763         C  6 -- H 11         +19.7% ( 42.5%)      0.7%
 REDUCED MASS        0.2227         C  1 -- H  5         +19.7% ( 42.5%)      0.7%
 EFFECTIVE MASS      1.8322
 FORCE CONSTANT      0.2337

 VIBRATION         21    6B2          ATOM PAIR      ENERGY CONTRIBUTION    RADIAL
 FREQUENCY          1366.42         C  2 -- H  7         +39.0% ( 67.5%)      0.0%
 TRANSITION DIPOLE   0.6859         C  2 -- H  8         +39.0% ( 67.5%)      0.0%
 TRAVEL (Ang.)       0.2975         C  2 -- C  6          +7.0% ( 28.6%)     32.9%
 REDUCED MASS        0.5575         C  1 -- C  2          +7.0% ( 28.6%)     32.9%
 EFFECTIVE MASS      2.4367
 FORCE CONSTANT      0.6133

 VIBRATION         22    5B1          ATOM PAIR      ENERGY CONTRIBUTION    RADIAL
 FREQUENCY          2630.89         C  2 -- H  8         +24.6% ( 51.6%)     98.2%
 TRANSITION DIPOLE   0.1213         C  2 -- H  7         +24.6% ( 51.6%)     98.2%
 TRAVEL (Ang.)       0.3720         C  1 -- H  5         +12.2% ( 36.4%)     98.3%
 REDUCED MASS        0.1852         C  6 -- H 11         +12.2% ( 36.4%)     98.3%
 EFFECTIVE MASS      1.4139         C  1 -- H  3         +12.2% ( 36.4%)     98.0%
 FORCE CONSTANT      0.7553         C  6 -- H  9         +12.2% ( 36.4%)     98.0%

 VIBRATION         23    5A2          ATOM PAIR      ENERGY CONTRIBUTION    RADIAL
 FREQUENCY          2644.88         C  6 -- H 11         +24.5% ( 51.3%)     98.1%
 TRANSITION DIPOLE   0.0000         C  1 -- H  3         +24.5% ( 51.3%)     97.8%
 TRAVEL (Ang.)       0.3176         C  6 -- H  9         +24.5% ( 51.3%)     97.8%
 REDUCED MASS        0.2528         C  1 -- H  5         +24.5% ( 51.3%)     98.1%
 EFFECTIVE MASS      1.4760
 FORCE CONSTANT      1.0420

 VIBRATION         24    6B1          ATOM PAIR      ENERGY CONTRIBUTION    RADIAL
 FREQUENCY          2666.45         C  2 -- H  7         +24.5% ( 50.9%)     97.8%
 TRANSITION DIPOLE   1.2387         C  2 -- H  8         +24.5% ( 50.9%)     97.8%
 TRAVEL (Ang.)       0.3640         C  6 -- H  9         +12.3% ( 36.0%)     97.7%
 REDUCED MASS        0.1908         C  1 -- H  3         +12.3% ( 36.0%)     97.6%
 EFFECTIVE MASS      1.4905         C  1 -- H  5         +12.3% ( 36.0%)     98.0%
 FORCE CONSTANT      0.7994         C  6 -- H 11         +12.3% ( 36.0%)     98.0%

 VIBRATION         25    8A1          ATOM PAIR      ENERGY CONTRIBUTION    RADIAL
 FREQUENCY          2710.43         C  1 -- H  5         +19.8% ( 43.8%)     97.0%
 TRANSITION DIPOLE   0.4700         C  1 -- H  3         +19.8% ( 43.8%)     97.3%
 TRAVEL (Ang.)       0.3775         C  6 -- H  9         +19.8% ( 43.8%)     97.3%
 REDUCED MASS        0.1746         C  6 -- H 11         +19.8% ( 43.8%)     97.0%
 EFFECTIVE MASS      1.1810
 FORCE CONSTANT      0.7557

 VIBRATION         26    7B2          ATOM PAIR      ENERGY CONTRIBUTION    RADIAL
 FREQUENCY          2712.64         C  6 -- H 11         +24.8% ( 49.0%)     96.4%
 TRANSITION DIPOLE   0.0274         C  6 -- H  9         +24.8% ( 49.0%)     96.8%
 TRAVEL (Ang.)       0.3209         C  1 -- H  5         +24.8% ( 49.0%)     96.4%
 REDUCED MASS        0.2414         C  1 -- H  3         +24.8% ( 49.0%)     96.8%
 EFFECTIVE MASS      1.2261
 FORCE CONSTANT      1.0464

 VIBRATION         27    9A1          ATOM PAIR      ENERGY CONTRIBUTION    RADIAL
 FREQUENCY          2739.13         C  2 -- H  7         +39.6% ( 61.8%)     96.0%
 TRANSITION DIPOLE   0.8150         C  2 -- H  8         +39.6% ( 61.8%)     96.0%
 TRAVEL (Ang.)       0.2778         C  1 -- H  3          +4.9% ( 21.8%)     93.5%
 REDUCED MASS        0.3189         C  1 -- H  5          +4.9% ( 21.8%)     92.9%
 EFFECTIVE MASS      1.2853
 FORCE CONSTANT      1.4097

      SYMMETRY NUMBER FOR POINT-GROUP C2v =  2


          SYSTEM IS A GROUND STATE



 1,3-dichlorpropan


          MOLECULE IS NOT LINEAR

          THERE ARE 27 GENUINE VIBRATIONS IN THIS SYSTEM
          THIS THERMODYNAMICS CALCULATION IS LIMITED TO
          MOLECULES WHICH HAVE NO INTERNAL ROTATIONS




                    CALCULATED THERMODYNAMIC PROPERTIES
                                          *
   TEMP. (K)   PARTITION FUNCTION   H.O.F.    ENTHALPY  HEAT CAPACITY ENTROPY
                                   KCAL/MOL   CAL/MOLE    CAL/K/MOL  CAL/K/MOL


 298.00  VIB.     0.3699D+02                  2186.6861    14.0465    14.5131
         ROT.     0.1267D+06                   888.2803     2.9808    26.3297
         INT.     0.4687D+07                  3074.9664    17.0273    40.8429
         TRA.     0.1161D+28                  1480.4672     4.9680    40.0797
         TOT.                      -36.118    4555.4336    21.9953    80.9226

 200.00  VIB.     0.1064D+02                  1050.7478     9.3665     9.9527
         ROT.     0.6967D+05                   596.1613     2.9808    25.1410
         INT.     0.7412D+06                  1646.9091    12.3473    35.0938
         TRA.     0.6384D+27                   993.6021     4.9680    38.0986
         TOT.                      -38.033    2640.5112    17.3154    73.1924

 210.00  VIB.     0.1214D+02                  1146.4342     9.7738    10.4195
         ROT.     0.7496D+05                   625.9693     2.9808    25.2865
         INT.     0.9096D+06                  1772.4035    12.7546    35.7060
         TRA.     0.6869D+27                  1043.2822     4.9680    38.3410
         TOT.                      -37.858    2815.6858    17.7226    74.0470

 220.00  VIB.     0.1382D+02                  1246.2841    10.1993    10.8839
         ROT.     0.8037D+05                   655.7774     2.9808    25.4251
         INT.     0.1111D+07                  1902.0615    13.1801    36.3091
         TRA.     0.7365D+27                  1092.9623     4.9680    38.5721
         TOT.                      -37.678    2995.0238    18.1481    74.8812

 230.00  VIB.     0.1573D+02                  1350.4795    10.6428    11.3470
         ROT.     0.8591D+05                   685.5855     2.9808    25.5576
         INT.     0.1351D+07                  2036.0650    13.6236    36.9047
         TRA.     0.7873D+27                  1142.6424     4.9680    38.7929
         TOT.                      -37.495    3178.7075    18.5916    75.6976

 240.00  VIB.     0.1787D+02                  1459.1981    11.1037    11.8097
         ROT.     0.9158D+05                   715.3935     2.9808    25.6845
         INT.     0.1637D+07                  2174.5916    14.0845    37.4942
         TRA.     0.8392D+27                  1192.3226     4.9680    39.0044
         TOT.                      -37.307    3366.9142    19.0525    76.4985

 250.00  VIB.     0.2029D+02                  1572.6080    11.5808    12.2726
         ROT.     0.9736D+05                   745.2016     2.9808    25.8062
         INT.     0.1976D+07                  2317.8095    14.5617    38.0788
         TRA.     0.8922D+27                  1242.0027     4.9680    39.2072
         TOT.                      -37.114    3559.8122    19.5297    77.2859

 260.00  VIB.     0.2302D+02                  1690.8643    12.0728    12.7363
         ROT.     0.1033D+06                   775.0097     2.9808    25.9231
         INT.     0.2378D+07                  2465.8740    15.0536    38.6594
         TRA.     0.9462D+27                  1291.6828     4.9680    39.4020
         TOT.                      -36.916    3757.5567    20.0216    78.0614

 270.00  VIB.     0.2610D+02                  1814.1069    12.5778    13.2014
         ROT.     0.1093D+06                   804.8177     2.9808    26.0356
         INT.     0.2853D+07                  2618.9246    15.5586    39.2370
         TRA.     0.1001D+28                  1341.3629     4.9680    39.5895
         TOT.                      -36.713    3960.2875    20.5266    78.8265

 280.00  VIB.     0.2958D+02                  1942.4583    13.0942    13.6681
         ROT.     0.1154D+06                   834.6258     2.9808    26.1440
         INT.     0.3413D+07                  2777.0841    16.0750    39.8121
         TRA.     0.1057D+28                  1391.0430     4.9680    39.7702
         TOT.                      -36.505    4168.1270    21.0430    79.5823

 290.00  VIB.     0.3350D+02                  2076.0228    13.6201    14.1367
         ROT.     0.1216D+06                   864.4339     2.9808    26.2486
         INT.     0.4075D+07                  2940.4566    16.6009    40.3853
         TRA.     0.1115D+28                  1440.7231     4.9680    39.9445
         TOT.                      -36.292    4381.1797    21.5689    80.3299

 300.00  VIB.     0.3792D+02                  2214.8862    14.1537    14.6075
         ROT.     0.1280D+06                   894.2419     2.9808    26.3497
         INT.     0.4853D+07                  3109.1282    17.1345    40.9571
         TRA.     0.1173D+28                  1490.4032     4.9680    40.1130
         TOT.                      -36.074    4599.5314    22.1025    81.0701

 310.00  VIB.     0.4291D+02                  2359.1164    14.6932    15.0803
         ROT.     0.1344D+06                   924.0500     2.9808    26.4474
         INT.     0.5769D+07                  3283.1664    17.6740    41.5277
         TRA.     0.1232D+28                  1540.0833     4.9680    40.2759
         TOT.                      -35.850    4823.2497    22.6420    81.8036

 320.00  VIB.     0.4855D+02                  2508.7632    15.2368    15.5554
         ROT.     0.1410D+06                   953.8580     2.9808    26.5420
         INT.     0.6845D+07                  3462.6212    18.2176    42.0974
         TRA.     0.1292D+28                  1589.7634     4.9680    40.4336
         TOT.                      -35.621    5052.3846    23.1856    82.5310

 330.00  VIB.     0.5491D+02                  2663.8599    15.7829    16.0326
         ROT.     0.1477D+06                   983.6661     2.9808    26.6338
         INT.     0.8108D+07                  3647.5260    18.7637    42.6664
         TRA.     0.1353D+28                  1639.4435     4.9680    40.5865
         TOT.                      -35.387    5286.9695    23.7317    83.2528

 340.00  VIB.     0.6210D+02                  2824.4241    16.3300    16.5119
         ROT.     0.1544D+06                  1013.4742     2.9808    26.7227
         INT.     0.9590D+07                  3837.8983    19.3108    43.2346
         TRA.     0.1415D+28                  1689.1236     4.9680    40.7348
         TOT.                      -35.146    5527.0219    24.2788    83.9694

 350.00  VIB.     0.7022D+02                  2990.4592    16.8768    16.9932
         ROT.     0.1613D+06                  1043.2822     2.9808    26.8091
         INT.     0.1133D+08                  4033.7414    19.8576    43.8023
         TRA.     0.1478D+28                  1738.8037     4.9680    40.8788
         TOT.                      -34.901    5772.5452    24.8256    84.6811

 360.00  VIB.     0.7940D+02                  3161.9553    17.4220    17.4762
         ROT.     0.1682D+06                  1073.0903     2.9808    26.8931
         INT.     0.1336D+08                  4235.0456    20.4028    44.3694
         TRA.     0.1542D+28                  1788.4838     4.9680    41.0187
         TOT.                      -34.650    6023.5294    25.3708    85.3881

 370.00  VIB.     0.8977D+02                  3338.8908    17.9646    17.9610
         ROT.     0.1753D+06                  1102.8984     2.9808    26.9748
         INT.     0.1574D+08                  4441.7892    20.9454    44.9358
         TRA.     0.1606D+28                  1838.1639     4.9680    41.1549
         TOT.                      -34.394    6279.9532    25.9134    86.0906

 380.00  VIB.     0.1015D+03                  3521.2341    18.5034    18.4472
         ROT.     0.1825D+06                  1132.7064     2.9808    27.0543
         INT.     0.1852D+08                  4653.9405    21.4842    45.5015
         TRA.     0.1672D+28                  1887.8440     4.9680    41.2873
         TOT.                      -34.132    6541.7846    26.4522    86.7889

 390.00  VIB.     0.1147D+03                  3708.9440    19.0378    18.9348
         ROT.     0.1897D+06                  1162.5145     2.9808    27.1317
         INT.     0.2177D+08                  4871.4585    22.0186    46.0665
         TRA.     0.1738D+28                  1937.5242     4.9680    41.4164
         TOT.                      -33.865    6808.9826    26.9866    87.4829

 400.00  VIB.     0.1297D+03                  3901.9718    19.5669    19.4235
         ROT.     0.1970D+06                  1192.3226     2.9808    27.2072
         INT.     0.2556D+08                  5094.2943    22.5477    46.6307
         TRA.     0.1806D+28                  1987.2043     4.9680    41.5422
         TOT.                      -33.592    7081.4986    27.5157    88.1728

   *: NOTE: HEATS OF FORMATION ARE RELATIVE TO THE
            ELEMENTS IN THEIR STANDARD STATE AT 298K
              (=  Standard Enthalpy of Formation).

            Hvib:  Zero-point energy is not included.
                   frequencies of less than zero cm-1 are not included.
            Hrot = (3/2)RT
            Htra = (3/2)RT + pV = (5/2)RT

            Heat capacity is Cp, not Cv

          For more information, see: HTTP://OpenMOPAC.net/Manual/thermochemistry.html


           FORCE CONSTANT IN CARTESIAN COORDINATES (Millidynes/A)

    ATOM   CHEMICAL       X               Y               Z
   NUMBER   SYMBOL  FORCE CONSTANT  FORCE CONSTANT  FORCE CONSTANT

      1       C        6.655913        5.899144        5.234827
      2       C        7.174482        6.596867        7.012094
      3       H        1.316200        3.473746        0.676532
      4      Cl        0.746702        0.977088        2.681831
      5       H        1.330602        1.505755        2.630122
      6       C        4.828971        6.296924        6.663989
      7       H        1.264259        3.598309        0.742432
      8       H        1.276948        1.324952        3.003101
      9       H        1.000534        1.374840        3.091105
     10      Cl        3.683933        0.337564        0.384123
     11       H        0.990709        3.747396        0.728373

 **********************
 *                    *
 * JOB ENDED NORMALLY *
 *                    *
 **********************



 TOTAL JOB TIME:             8.29 SECONDS

 == MOPAC DONE ==
