 *******************************************************************************
 **                                                                           **
 **                              MOPAC v22.1.0                                **
 **                                                                           **
 *******************************************************************************
 **          Digital Object Identifier (DOI): 10.5281/zenodo.6511958          **
 **    Visit the DOI location for information on how to cite this program.    **
 *******************************************************************************

                              PM7 CALCULATION RESULTS

 *******************************************************************************
 *  CALCULATION DONE:                                Sat Jan 13 21:55:06 2024  *
 *  PM7        - The PM7 Hamiltonian to be used
 *  SINGLET    - SPIN STATE DEFINED AS A SINGLET
 *  NOOPT      - DO NOT OPTIMIZE ANY COORDINATES
 *
 *
 *
 *                 CHARGE ON SYSTEM = 0
 *
 *
 *
 *  T=         - A TIME OF 172800.0 SECONDS REQUESTED
 *  DUMP=N     - RESTART FILE WRITTEN EVERY 7200.0 SECONDS REQUESTED
 *  AUX        - OUTPUT AUXILIARY INFORMATION
 *  LARGE      - EXPANDED OUTPUT TO BE PRINTED
 *  GRAPH      - GENERATE FILE FOR GRAPHICS
 *  ALLVEC     - PRINT ALL EIGENVECTORS
 *******************************************************************************
 AUX LARGE CHARGE=0 SINGLET NOOPT PM7 GRAPHF ALLVEC
 Atom Ar

   ATOM   CHEMICAL          X               Y               Z
  NUMBER   SYMBOL      (ANGSTROMS)     (ANGSTROMS)     (ANGSTROMS)
 
     1      Ar         -1.37078000      1.81308000      0.00000000   
 


          CARTESIAN COORDINATES 

    NO.       ATOM           X           Y           Z

     1        Ar         -1.3708      1.8131      0.0000

 General Reference for PM7:
 "Optimization of Parameters for Semiempirical Methods VI: More Modifications to the 
 NDDO Approximations and Re-optimization of Parameters", J. J. P. Stewart, J. Mol. Mod., 1:32, 19 (2013)
 https://link.springer.com/article/10.1007/s00894-012-1667-x

           Empirical Formula: Ar  =     1 atoms



      MOLECULAR POINT GROUP   :   R3  


 SINGLET STATE CALCULATION


      RHF CALCULATION, NO. OF DOUBLY OCCUPIED LEVELS = 3


 -------------------------------------------------------------------------------
 AUX LARGE CHARGE=0 SINGLET NOOPT PM7 GRAPHF ALLVEC
 Atom Ar



     NO PARAMETERS MARKED FOR OPTIMIZATION, SO 1SCF WAS USED  
     SCF FIELD WAS ACHIEVED                                   


                              PM7 CALCULATION
                                                       MOPAC v22.1.0 Windows
                                                       Sat Jan 13 21:55:06 2024




          FINAL HEAT OF FORMATION =          0.00000 KCAL/MOL =       0.00000 KJ/MOL


          COSMO AREA              =         60.82 SQUARE ANGSTROMS
          COSMO VOLUME            =         44.60 CUBIC ANGSTROMS

          IONIZATION POTENTIAL    =          4.863772 EV
          HOMO LUMO ENERGIES (EV) =         -4.864  3.489
          NO. OF FILLED LEVELS    =          3
          MOLECULAR WEIGHT        =         39.9480         POINT GROUP:  R3  


          SCF CALCULATIONS        =          1
 
          WALL-CLOCK TIME         =      0.031 SECONDS
          COMPUTATION TIME        =      0.016 SECONDS




   ATOM   CHEMICAL          X               Y               Z
  NUMBER   SYMBOL      (ANGSTROMS)     (ANGSTROMS)     (ANGSTROMS)
 
     1      Ar         -1.37078000      1.81308000      0.00000000   

                             CARTESIAN COORDINATES

   1   Ar       -1.370780000     1.813080000     0.000000000


           Empirical Formula: Ar  =     1 atoms



      MOLECULAR POINT GROUP   :   R3  


                EIGENVECTORS  


   Root No.       1         2         3         4

                 1 p(u)    1 p(u)    1 p(u)    1 s(g)

                -4.864    -4.864    -4.864     3.489
  
  S  Ar    1   -0.0000    0.0000    0.0000    1.0000
  Px Ar    1    1.0000   -0.0000    0.0000    0.0000
  Py Ar    1    0.0000    1.0000    0.0000   -0.0000
  Pz Ar    1    0.0000    0.0000    1.0000    0.0000


              NET ATOMIC CHARGES AND DIPOLE CONTRIBUTIONS

  ATOM NO.   TYPE          CHARGE      No. of ELECS.   s-Pop       p-Pop       
    1         Ar           0.000000        6.0000     0.00000     6.00000
 DIPOLE           X         Y         Z       TOTAL
 POINT-CHG.     0.000     0.000     0.000     0.000
 HYBRID        -0.000     0.000     0.000     0.000
 SUM           -0.000     0.000     0.000     0.000


          ATOMIC ORBITAL ELECTRON POPULATIONS

     Atom    s        px        py        pz   
    1 Ar   0.00000   2.00000   2.00000   2.00000

           DATA FOR GRAPH WRITTEN TO DISK

 **********************
 *                    *
 * JOB ENDED NORMALLY *
 *                    *
 **********************



 TOTAL JOB TIME:             0.06 SECONDS

 == MOPAC DONE ==
