 *******************************************************************************
 **                                                                           **
 **                              MOPAC v22.1.0                                **
 **                                                                           **
 *******************************************************************************
 **          Digital Object Identifier (DOI): 10.5281/zenodo.6511958          **
 **    Visit the DOI location for information on how to cite this program.    **
 *******************************************************************************

                              PM7 CALCULATION RESULTS

 *******************************************************************************
 *  CALCULATION DONE:                                Wed Jan 24 07:43:35 2024  *
 *  PM7        - The PM7 Hamiltonian to be used
 *  SINGLET    - SPIN STATE DEFINED AS A SINGLET
 *
 *
 *
 *                 CHARGE ON SYSTEM = 0
 *
 *
 *
 *  PRECISE    - TIGHTER CRITERIA TO BE USED
 *  T=         - A TIME OF 172800.0 SECONDS REQUESTED
 *  DUMP=N     - RESTART FILE WRITTEN EVERY 7200.0 SECONDS REQUESTED
 *  LARGE      - EXPANDED OUTPUT TO BE PRINTED
 *******************************************************************************
 PRECISE LARGE CHARGE=0 SINGLET  PM7
 CO PM7

   ATOM   CHEMICAL          X               Y               Z
  NUMBER   SYMBOL      (ANGSTROMS)     (ANGSTROMS)     (ANGSTROMS)
 
     1       C         -3.03652000  *   0.33021000  *   0.00000000  *
     2       O         -1.90850000  *   0.34486000  *   0.00000000  *
 


          CARTESIAN COORDINATES 

    NO.       ATOM           X           Y           Z

     1         C         -3.0365      0.3302      0.0000
     2         O         -1.9085      0.3449      0.0000

 General Reference for PM7:
 "Optimization of Parameters for Semiempirical Methods VI: More Modifications to the 
 NDDO Approximations and Re-optimization of Parameters", J. J. P. Stewart, J. Mol. Mod., 1:32, 19 (2013)
 https://link.springer.com/article/10.1007/s00894-012-1667-x

           Empirical Formula: C O  =     2 atoms



      MOLECULAR POINT GROUP   :   C*v 


 SINGLET STATE CALCULATION


      RHF CALCULATION, NO. OF DOUBLY OCCUPIED LEVELS = 5


          Geometry optimization using EF

          DIAGONAL MATRIX USED AS START HESSIAN

 CYCLE:     1 TIME:   0.018 TIME LEFT:  2.00D  GRAD.:    39.169 HEAT: -18.15664
 CYCLE:     2 TIME:   0.008 TIME LEFT:  2.00D  GRAD.:     9.667 HEAT: -18.29836
 CYCLE:     3 TIME:   0.008 TIME LEFT:  2.00D  GRAD.:     0.258 HEAT: -18.30801
 CYCLE:     4 TIME:   0.014 TIME LEFT:  2.00D  GRAD.:     0.008 HEAT: -18.30802

     GRADIENT =  0.00849 IS LESS THAN CUTOFF =  0.05000



 -------------------------------------------------------------------------------
 PRECISE LARGE CHARGE=0 SINGLET  PM7
 CO PM7



     GEOMETRY OPTIMISED USING EIGENVECTOR FOLLOWING (EF).     
     SCF FIELD WAS ACHIEVED                                   


                              PM7 CALCULATION
                                                       MOPAC v22.1.0 Windows
                                                       Wed Jan 24 07:43:35 2024




          FINAL HEAT OF FORMATION =        -18.30802 KCAL/MOL =     -76.60077 KJ/MOL


          COSMO AREA              =         57.74 SQUARE ANGSTROMS
          COSMO VOLUME            =         40.37 CUBIC ANGSTROMS

          GRADIENT NORM           =          0.00849          =       0.00601 PER ATOM
          IONIZATION POTENTIAL    =         12.334210 EV
          HOMO LUMO ENERGIES (EV) =        -12.334  1.595
          NO. OF FILLED LEVELS    =          5
          MOLECULAR WEIGHT        =         28.0104         POINT GROUP:  C*v 

          MOLECULAR DIMENSIONS (Angstroms)

            Atom       Atom       Distance
            O     2    C     1     1.13915
            O     2    C     1     0.00000
            C     1    O     2     0.00000


          SCF CALCULATIONS        =          7
 
          WALL-CLOCK TIME         =      0.129 SECONDS
          COMPUTATION TIME        =      0.078 SECONDS




   ATOM   CHEMICAL          X               Y               Z
  NUMBER   SYMBOL      (ANGSTROMS)     (ANGSTROMS)     (ANGSTROMS)
 
     1       C         -3.04203666  *   0.33012787  *  -0.00000000  *
     2       O         -1.90298334  *   0.34494213  *  -0.00000000  *

                             CARTESIAN COORDINATES

   1    C       -3.042036663     0.330127868    -0.000000000
   2    O       -1.902983336     0.344942132    -0.000000000


           Empirical Formula: C O  =     2 atoms



      MOLECULAR POINT GROUP   :   C*v 


                  EIGENVALUES  
 -32.82585 -19.75551 -15.15693 -15.15693 -12.33421   1.59486   1.59486   5.56291


              NET ATOMIC CHARGES AND DIPOLE CONTRIBUTIONS

  ATOM NO.   TYPE          CHARGE      No. of ELECS.   s-Pop       p-Pop       
    1          C           0.435278        3.5647     1.78660     1.77813
    2          O          -0.435278        6.4353     1.83380     4.60148
 DIPOLE           X         Y         Z       TOTAL
 POINT-CHG.    -2.381    -0.031    -0.000     2.382
 HYBRID         1.628     0.021    -0.000     1.628
 SUM           -0.753    -0.010    -0.000     0.753


          ATOMIC ORBITAL ELECTRON POPULATIONS

     Atom    s        px        py        pz   
    1  C   1.78660   0.89353   0.44234   0.44226
    2  O   1.83380   1.48601   1.55773   1.55774
 *******************************************************************************
 **                                                                           **
 **                              MOPAC v22.1.0                                **
 **                                                                           **
 *******************************************************************************
 **          Digital Object Identifier (DOI): 10.5281/zenodo.6511958          **
 **    Visit the DOI location for information on how to cite this program.    **
 *******************************************************************************

                              PM7 CALCULATION RESULTS

 *******************************************************************************
 *  CALCULATION DONE:                                Wed Jan 24 07:43:35 2024  *
 *  PM7        - The PM7 Hamiltonian to be used
 *  SINGLET    - SPIN STATE DEFINED AS A SINGLET
 *
 *
 *
 *                 CHARGE ON SYSTEM = 0
 *
 *
 *
 *  OLDGEO     - PREVIOUS GEOMETRY TO BE USED
 *  PRECISE    - TIGHTER CRITERIA TO BE USED
 *  T=         - A TIME OF 172800.0 SECONDS REQUESTED
 *  DUMP=N     - RESTART FILE WRITTEN EVERY 7200.0 SECONDS REQUESTED
 *  THERMO     - THERMODYNAMIC QUANTITIES TO BE CALCULATED
 *******************************************************************************
OLDGEO CHARGE=0 SINGLET PRECISE PM7 THERMO
 oxid uholnaty

   ATOM   CHEMICAL          X               Y               Z
  NUMBER   SYMBOL      (ANGSTROMS)     (ANGSTROMS)     (ANGSTROMS)
 
     1       C         -3.04203666  *   0.33012787  *  -0.00000000  *
     2       O         -1.90298334  *   0.34494213  *  -0.00000000  *
 


          CARTESIAN COORDINATES 

    NO.       ATOM           X           Y           Z

     1         C         -3.0420      0.3301     -0.0000
     2         O         -1.9030      0.3449     -0.0000

 General Reference for PM7:
 "Optimization of Parameters for Semiempirical Methods VI: More Modifications to the 
 NDDO Approximations and Re-optimization of Parameters", J. J. P. Stewart, J. Mol. Mod., 1:32, 19 (2013)
 https://link.springer.com/article/10.1007/s00894-012-1667-x

           Empirical Formula: C O  =     2 atoms



      MOLECULAR POINT GROUP   :   C*v 


 SINGLET STATE CALCULATION


      RHF CALCULATION, NO. OF DOUBLY OCCUPIED LEVELS = 5



          HEAT OF FORMATION =     -18.308022 KCALS/MOLE


          CARTESIAN COORDINATE DERIVATIVES

   NUMBER  ATOM         X            Y            Z

     1       C     -0.006027     0.000000     0.000000
     2       O      0.006027     0.000000     0.000000
 


          GRADIENT NORM =   0.00852

          MOLECULAR WEIGHT =   28.01



          ROTATIONAL CONSTANTS IN CM(-1)

          A =    0.00000000   B =    1.89352645   C =    1.89352645



           PRINCIPAL MOMENTS OF INERTIA IN UNITS OF 10**(-40)*GRAM-CM**2

          A =        0.0000   B =       14.7834   C =       14.7834


          ORIENTATION OF MOLECULE IN FORCE CALCULATION

    NO.       ATOM         X         Y         Z

     1          C      -0.6507    0.0000    0.0000
     2          O       0.4885    0.0000   -0.0000


    FIRST DERIVATIVES WILL BE USED IN THE CALCULATION OF SECOND DERIVATIVES

          ESTIMATED TIME TO COMPLETE CALCULATION =        0.19 SECONDS

    FOR POINT-GROUP C*v  THERE ARE  84 UNIQUE SYMMETRY FUNCTIONS.

 STEP:   1 TIME =     0.01 SECS, INTEGRAL =      0.01 TIME LEFT: 172799.98
 STEP:   2 TIME =     0.01 SECS, INTEGRAL =      0.02 TIME LEFT: 172799.97
 STEP:   3 TIME =     0.01 SECS, INTEGRAL =      0.03 TIME LEFT: 172799.96
 STEP:   4 TIME =     0.00 SECS, INTEGRAL =      0.03 TIME LEFT: 172799.96
 STEP:   5 TIME =     0.01 SECS, INTEGRAL =      0.04 TIME LEFT: 172799.96
 STEP:   6 TIME =     0.01 SECS, INTEGRAL =      0.04 TIME LEFT: 172799.95

(To convert to Hartree/Bohr^2, multiply by (10^(-21) x N x a0^2)/(4.184 x 627.51) =  0.0642)


           FORCE MATRIX IN MILLIDYNES/ANGSTROM


                  C  1       O  2
 ------------------------------
     C    1  16.969153
     O    2  16.969154  16.969155


          HEAT OF FORMATION =     -18.308022 KCALS/MOLE

          ZERO POINT ENERGY       2.929 KCAL/MOL


           NORMAL COORDINATE ANALYSIS (Total motion = 1 Angstrom)


   Root No.       1

                 1 Sig 

                2048.9
  
           1    0.5712
           2   -0.0000
           3   -0.0000
           4   -0.4288
           5    0.0000
           6    0.0000


           MASS-WEIGHTED COORDINATE ANALYSIS (NORMAL COORDINATES)


   Root No.       1

                 1 Sig 

                2048.9
  
           1    0.7558
           2   -0.0000
           3   -0.0000
           4   -0.6548
           5    0.0000
           6    0.0000


          DESCRIPTION OF VIBRATIONS


 VIBRATION          1    1Sig        ATOM PAIR     ENERGY CONTRIBUTION    RADIAL
 FREQUENCY          2048.91         C 1 -- O 2        +100.0% (100.0%)    100.0%
 TRANSITION DIPOLE   4.5477
 TRAVEL (Ang.)       0.0693
 REDUCED MASS        6.8606
 EFFECTIVE MASS     13.6513
 FORCE CONSTANT     16.9692

      SYMMETRY NUMBER FOR POINT-GROUP C*v =  1


          SYSTEM IS A GROUND STATE



 oxid uholnaty


          MOLECULE IS LINEAR

          THERE ARE  1 GENUINE VIBRATIONS IN THIS SYSTEM
          THIS THERMODYNAMICS CALCULATION IS LIMITED TO
          MOLECULES WHICH HAVE NO INTERNAL ROTATIONS




                    CALCULATED THERMODYNAMIC PROPERTIES
                                          *
   TEMP. (K)   PARTITION FUNCTION   H.O.F.    ENTHALPY  HEAT CAPACITY ENTROPY
                                   KCAL/MOL   CAL/MOLE    CAL/K/MOL  CAL/K/MOL


 298.00  VIB.     0.1000D+01                     0.2962     0.0098     0.0011
         ROT.     0.1094D+03                   592.1869     1.9872    11.3168
         INT.     0.1094D+03                   592.4831     1.9970    11.3179
         TRA.     0.1433D+27                  1480.4672     4.9680    35.9224
         TOT.                      -18.308    2072.9502     6.9650    47.2403

 200.00  VIB.     0.1000D+01                     0.0023     0.0002     0.0000
         ROT.     0.7341D+02                   397.4409     1.9872    10.5244
         INT.     0.7341D+02                   397.4432     1.9874    10.5244
         TRA.     0.7880D+26                   993.6021     4.9680    33.9413
         TOT.                      -18.990    1391.0453     6.9554    44.4657

 210.00  VIB.     0.1000D+01                     0.0047     0.0003     0.0000
         ROT.     0.7708D+02                   417.3129     1.9872    10.6214
         INT.     0.7708D+02                   417.3176     1.9875    10.6214
         TRA.     0.8478D+26                  1043.2822     4.9680    34.1836
         TOT.                      -18.920    1460.5998     6.9555    44.8050

 220.00  VIB.     0.1000D+01                     0.0089     0.0005     0.0000
         ROT.     0.8075D+02                   437.1849     1.9872    10.7138
         INT.     0.8075D+02                   437.1938     1.9877    10.7138
         TRA.     0.9091D+26                  1092.9623     4.9680    34.4148
         TOT.                      -18.851    1530.1562     6.9558    45.1286

 230.00  VIB.     0.1000D+01                     0.0159     0.0009     0.0001
         ROT.     0.8442D+02                   457.0570     1.9872    10.8021
         INT.     0.8442D+02                   457.0729     1.9881    10.8022
         TRA.     0.9718D+26                  1142.6424     4.9680    34.6356
         TOT.                      -18.781    1599.7153     6.9561    45.4378

 240.00  VIB.     0.1000D+01                     0.0271     0.0014     0.0001
         ROT.     0.8809D+02                   476.9290     1.9872    10.8867
         INT.     0.8809D+02                   476.9561     1.9886    10.8868
         TRA.     0.1036D+27                  1192.3226     4.9680    34.8470
         TOT.                      -18.712    1669.2787     6.9566    45.7339

 250.00  VIB.     0.1000D+01                     0.0443     0.0021     0.0002
         ROT.     0.9176D+02                   496.8011     1.9872    10.9678
         INT.     0.9177D+02                   496.8454     1.9893    10.9680
         TRA.     0.1101D+27                  1242.0027     4.9680    35.0498
         TOT.                      -18.642    1738.8481     6.9573    46.0179

 260.00  VIB.     0.1000D+01                     0.0698     0.0030     0.0003
         ROT.     0.9544D+02                   516.6731     1.9872    11.0458
         INT.     0.9544D+02                   516.7429     1.9902    11.0461
         TRA.     0.1168D+27                  1291.6828     4.9680    35.2447
         TOT.                      -18.573    1808.4256     6.9583    46.2908

 270.00  VIB.     0.1000D+01                     0.1062     0.0043     0.0004
         ROT.     0.9911D+02                   536.5451     1.9872    11.1208
         INT.     0.9911D+02                   536.6513     1.9915    11.1212
         TRA.     0.1236D+27                  1341.3629     4.9680    35.4322
         TOT.                      -18.503    1878.0142     6.9595    46.5534

 280.00  VIB.     0.1000D+01                     0.1568     0.0059     0.0006
         ROT.     0.1028D+03                   556.4172     1.9872    11.1930
         INT.     0.1028D+03                   556.5740     1.9931    11.1937
         TRA.     0.1305D+27                  1391.0430     4.9680    35.6129
         TOT.                      -18.433    1947.6170     6.9611    46.8065

 290.00  VIB.     0.1000D+01                     0.2255     0.0079     0.0009
         ROT.     0.1064D+03                   576.2892     1.9872    11.2628
         INT.     0.1065D+03                   576.5147     1.9951    11.2636
         TRA.     0.1376D+27                  1440.7231     4.9680    35.7872
         TOT.                      -18.364    2017.2378     6.9631    47.0508

 300.00  VIB.     0.1000D+01                     0.3164     0.0104     0.0012
         ROT.     0.1101D+03                   596.1613     1.9872    11.3301
         INT.     0.1101D+03                   596.4777     1.9976    11.3313
         TRA.     0.1448D+27                  1490.4032     4.9680    35.9556
         TOT.                      -18.294    2086.8809     6.9656    47.2869

 310.00  VIB.     0.1000D+01                     0.4344     0.0133     0.0015
         ROT.     0.1138D+03                   616.0333     1.9872    11.3953
         INT.     0.1138D+03                   616.4677     2.0005    11.3968
         TRA.     0.1521D+27                  1540.0833     4.9680    36.1185
         TOT.                      -18.224    2156.5510     6.9685    47.5154

 320.00  VIB.     0.1000D+01                     0.5847     0.0168     0.0020
         ROT.     0.1175D+03                   635.9054     1.9872    11.4584
         INT.     0.1175D+03                   636.4901     2.0040    11.4604
         TRA.     0.1595D+27                  1589.7634     4.9680    36.2763
         TOT.                      -18.155    2226.2535     6.9721    47.7367

 330.00  VIB.     0.1000D+01                     0.7731     0.0209     0.0026
         ROT.     0.1211D+03                   655.7774     1.9872    11.5195
         INT.     0.1211D+03                   656.5505     2.0081    11.5221
         TRA.     0.1670D+27                  1639.4435     4.9680    36.4291
         TOT.                      -18.085    2295.9940     6.9761    47.9513

 340.00  VIB.     0.1000D+01                     1.0054     0.0256     0.0033
         ROT.     0.1248D+03                   675.6494     1.9872    11.5789
         INT.     0.1248D+03                   676.6548     2.0128    11.5822
         TRA.     0.1747D+27                  1689.1236     4.9680    36.5774
         TOT.                      -18.015    2365.7785     6.9809    48.1596

 350.00  VIB.     0.1000D+01                     1.2881     0.0310     0.0041
         ROT.     0.1285D+03                   695.5215     1.9872    11.6365
         INT.     0.1285D+03                   696.8096     2.0182    11.6406
         TRA.     0.1824D+27                  1738.8037     4.9680    36.7214
         TOT.                      -17.945    2435.6133     6.9862    48.3620

 360.00  VIB.     0.1000D+01                     1.6277     0.0370     0.0051
         ROT.     0.1321D+03                   715.3935     1.9872    11.6925
         INT.     0.1322D+03                   717.0213     2.0242    11.6975
         TRA.     0.1903D+27                  1788.4838     4.9680    36.8614
         TOT.                      -17.875    2505.5051     6.9922    48.5589

 370.00  VIB.     0.1000D+01                     2.0311     0.0438     0.0062
         ROT.     0.1358D+03                   735.2656     1.9872    11.7469
         INT.     0.1359D+03                   737.2966     2.0310    11.7531
         TRA.     0.1983D+27                  1838.1639     4.9680    36.9975
         TOT.                      -17.806    2575.4606     6.9990    48.7506

 380.00  VIB.     0.1000D+01                     2.5051     0.0512     0.0074
         ROT.     0.1395D+03                   755.1376     1.9872    11.7999
         INT.     0.1395D+03                   757.6427     2.0384    11.8073
         TRA.     0.2064D+27                  1887.8440     4.9680    37.1300
         TOT.                      -17.735    2645.4867     7.0064    48.9373

 390.00  VIB.     0.1001D+01                     3.0567     0.0593     0.0089
         ROT.     0.1432D+03                   775.0097     1.9872    11.8515
         INT.     0.1432D+03                   778.0663     2.0465    11.8604
         TRA.     0.2146D+27                  1937.5242     4.9680    37.2591
         TOT.                      -17.665    2715.5905     7.0145    49.1194

 400.00  VIB.     0.1001D+01                     3.6929     0.0681     0.0105
         ROT.     0.1468D+03                   794.8817     1.9872    11.9018
         INT.     0.1469D+03                   798.5746     2.0553    11.9123
         TRA.     0.2229D+27                  1987.2043     4.9680    37.3848
         TOT.                      -17.595    2785.7788     7.0233    49.2971

   *: NOTE: HEATS OF FORMATION ARE RELATIVE TO THE
            ELEMENTS IN THEIR STANDARD STATE AT 298K
              (=  Standard Enthalpy of Formation).

            Hvib:  Zero-point energy is not included.
                   frequencies of less than zero cm-1 are not included.
            Hrot = (3/2)RT
            Htra = (3/2)RT + pV = (5/2)RT

            Heat capacity is Cp, not Cv

          For more information, see: HTTP://OpenMOPAC.net/Manual/thermochemistry.html


           FORCE CONSTANT IN CARTESIAN COORDINATES (Millidynes/A)

    ATOM   CHEMICAL       X               Y               Z
   NUMBER   SYMBOL  FORCE CONSTANT  FORCE CONSTANT  FORCE CONSTANT

      1       C       16.969154        0.002758        0.002758
      2       O       16.969153        0.002758        0.002758

 **********************
 *                    *
 * JOB ENDED NORMALLY *
 *                    *
 **********************



 TOTAL JOB TIME:             0.41 SECONDS

 == MOPAC DONE ==
