 *******************************************************************************
 **                                                                           **
 **                              MOPAC v22.1.0                                **
 **                                                                           **
 *******************************************************************************
 **          Digital Object Identifier (DOI): 10.5281/zenodo.6511958          **
 **    Visit the DOI location for information on how to cite this program.    **
 *******************************************************************************

                              PM7 CALCULATION RESULTS

 *******************************************************************************
 *  CALCULATION DONE:                                Mon Jan 22 16:15:47 2024  *
 *  PM7        - The PM7 Hamiltonian to be used
 *  SINGLET    - SPIN STATE DEFINED AS A SINGLET
 *  NOOPT      - DO NOT OPTIMIZE ANY COORDINATES
 *
 *
 *
 *                 CHARGE ON SYSTEM = 0
 *
 *
 *
 *  T=         - A TIME OF 172800.0 SECONDS REQUESTED
 *  DUMP=N     - RESTART FILE WRITTEN EVERY 7200.0 SECONDS REQUESTED
 *  LARGE      - EXPANDED OUTPUT TO BE PRINTED
 *******************************************************************************
 LARGE CHARGE=0 SINGLET NOOPT PM7
 2,2'-dimethyldefenyl TOP BARRIER 120

   ATOM   CHEMICAL          X               Y               Z
  NUMBER   SYMBOL      (ANGSTROMS)     (ANGSTROMS)     (ANGSTROMS)
 
     1       C         -2.43927000      0.88600000     -0.04953000   
     2       C         -2.33805000      2.25274000      0.24388000   
     3       C         -3.47731000      2.98425000      0.58226000   
     4       C         -4.72023000      2.35832000      0.63359000   
     5       C         -4.82419000      0.99901000      0.34578000   
     6       C         -3.68953000      0.26662000      0.00483000   
     7       H         -3.38848000      4.04647000      0.80479000   
     8       H         -5.60652000      2.93028000      0.89728000   
     9       H         -5.79401000      0.50771000      0.38594000   
    10       H         -3.77862000     -0.79354000     -0.22128000   
    11       C         -1.03638000      2.93383000      0.19889000   
    12       C         -0.85754000      4.00244000     -0.68062000   
    13       C          0.36847000      4.66012000     -0.74135000   
    14       C          1.41705000      4.24888000      0.07883000   
    15       C          1.24097000      3.18455000      0.95995000   
    16       C          0.01506000      2.51959000      1.02793000   
    17       C         -1.22682000      0.10364000     -0.42265000   
    18       H         -1.68192000      4.31894000     -1.31775000   
    19       H          0.50547000      5.49256000     -1.42724000   
    20       H          2.37595000      4.76066000      0.03257000   
    21       H          2.06313000      2.87074000      1.59914000   
    22       C         -0.17549000      1.38573000      1.97627000   
    23       H         -0.91623000      1.64091000      2.75071000   
    24       H          0.74934000      1.09661000      2.49044000   
    25       H         -0.55861000      0.49078000      1.46148000   
    26       H         -0.82275000      0.44266000     -1.38979000   
    27       H         -1.42059000     -0.97268000     -0.50789000   
    28       H         -0.41998000      0.23448000      0.31535000   
 


          CARTESIAN COORDINATES 

    NO.       ATOM           X           Y           Z

     1         C         -2.4393      0.8860     -0.0495
     2         C         -2.3380      2.2527      0.2439
     3         C         -3.4773      2.9842      0.5823
     4         C         -4.7202      2.3583      0.6336
     5         C         -4.8242      0.9990      0.3458
     6         C         -3.6895      0.2666      0.0048
     7         H         -3.3885      4.0465      0.8048
     8         H         -5.6065      2.9303      0.8973
     9         H         -5.7940      0.5077      0.3859
    10         H         -3.7786     -0.7935     -0.2213
    11         C         -1.0364      2.9338      0.1989
    12         C         -0.8575      4.0024     -0.6806
    13         C          0.3685      4.6601     -0.7414
    14         C          1.4171      4.2489      0.0788
    15         C          1.2410      3.1845      0.9600
    16         C          0.0151      2.5196      1.0279
    17         C         -1.2268      0.1036     -0.4227
    18         H         -1.6819      4.3189     -1.3177
    19         H          0.5055      5.4926     -1.4272
    20         H          2.3760      4.7607      0.0326
    21         H          2.0631      2.8707      1.5991
    22         C         -0.1755      1.3857      1.9763
    23         H         -0.9162      1.6409      2.7507
    24         H          0.7493      1.0966      2.4904
    25         H         -0.5586      0.4908      1.4615
    26         H         -0.8228      0.4427     -1.3898
    27         H         -1.4206     -0.9727     -0.5079
    28         H         -0.4200      0.2345      0.3154

 General Reference for PM7:
 "Optimization of Parameters for Semiempirical Methods VI: More Modifications to the 
 NDDO Approximations and Re-optimization of Parameters", J. J. P. Stewart, J. Mol. Mod., 1:32, 19 (2013)
 https://link.springer.com/article/10.1007/s00894-012-1667-x

           Empirical Formula: C14 H14  =    28 atoms



      MOLECULAR POINT GROUP   :   C2  


 SINGLET STATE CALCULATION


      RHF CALCULATION, NO. OF DOUBLY OCCUPIED LEVELS = 35


 -------------------------------------------------------------------------------
 LARGE CHARGE=0 SINGLET NOOPT PM7
 2,2'-dimethyldefenyl TOP BARRIER 120



     NO PARAMETERS MARKED FOR OPTIMIZATION, SO 1SCF WAS USED  
     SCF FIELD WAS ACHIEVED                                   


                              PM7 CALCULATION
                                                       MOPAC v22.1.0 Windows
                                                       Mon Jan 22 16:15:47 2024




          FINAL HEAT OF FORMATION =         40.59477 KCAL/MOL =     169.84850 KJ/MOL


          COSMO AREA              =        218.90 SQUARE ANGSTROMS
          COSMO VOLUME            =        239.02 CUBIC ANGSTROMS

          IONIZATION POTENTIAL    =          9.082147 EV
          HOMO LUMO ENERGIES (EV) =         -9.082 -0.013
          NO. OF FILLED LEVELS    =         35
          MOLECULAR WEIGHT        =        182.2646         POINT GROUP:  C2  

          MOLECULAR DIMENSIONS (Angstroms)

            Atom       Atom       Distance
            H    20    H     9     9.21741
            H    19    H    24     5.55709
            H    27    H     8     4.69379


          SCF CALCULATIONS        =          1
 
          WALL-CLOCK TIME         =      0.125 SECONDS
          COMPUTATION TIME        =      0.562 SECONDS




   ATOM   CHEMICAL          X               Y               Z
  NUMBER   SYMBOL      (ANGSTROMS)     (ANGSTROMS)     (ANGSTROMS)
 
     1       C         -2.43927000      0.88600000     -0.04953000   
     2       C         -2.33805000      2.25274000      0.24388000   
     3       C         -3.47731000      2.98425000      0.58226000   
     4       C         -4.72023000      2.35832000      0.63359000   
     5       C         -4.82419000      0.99901000      0.34578000   
     6       C         -3.68953000      0.26662000      0.00483000   
     7       H         -3.38848000      4.04647000      0.80479000   
     8       H         -5.60652000      2.93028000      0.89728000   
     9       H         -5.79401000      0.50771000      0.38594000   
    10       H         -3.77862000     -0.79354000     -0.22128000   
    11       C         -1.03638000      2.93383000      0.19889000   
    12       C         -0.85754000      4.00244000     -0.68062000   
    13       C          0.36847000      4.66012000     -0.74135000   
    14       C          1.41705000      4.24888000      0.07883000   
    15       C          1.24097000      3.18455000      0.95995000   
    16       C          0.01506000      2.51959000      1.02793000   
    17       C         -1.22682000      0.10364000     -0.42265000   
    18       H         -1.68192000      4.31894000     -1.31775000   
    19       H          0.50547000      5.49256000     -1.42724000   
    20       H          2.37595000      4.76066000      0.03257000   
    21       H          2.06313000      2.87074000      1.59914000   
    22       C         -0.17549000      1.38573000      1.97627000   
    23       H         -0.91623000      1.64091000      2.75071000   
    24       H          0.74934000      1.09661000      2.49044000   
    25       H         -0.55861000      0.49078000      1.46148000   
    26       H         -0.82275000      0.44266000     -1.38979000   
    27       H         -1.42059000     -0.97268000     -0.50789000   
    28       H         -0.41998000      0.23448000      0.31535000   

                             CARTESIAN COORDINATES

   1    C       -2.439270000     0.886000000    -0.049530000
   2    C       -2.338050000     2.252740000     0.243880000
   3    C       -3.477310000     2.984250000     0.582260000
   4    C       -4.720230000     2.358320000     0.633590000
   5    C       -4.824190000     0.999010000     0.345780000
   6    C       -3.689530000     0.266620000     0.004830000
   7    H       -3.388480000     4.046470000     0.804790000
   8    H       -5.606520000     2.930280000     0.897280000
   9    H       -5.794010000     0.507710000     0.385940000
  10    H       -3.778620000    -0.793540000    -0.221280000
  11    C       -1.036380000     2.933830000     0.198890000
  12    C       -0.857540000     4.002440000    -0.680620000
  13    C        0.368470000     4.660120000    -0.741350000
  14    C        1.417050000     4.248880000     0.078830000
  15    C        1.240970000     3.184550000     0.959950000
  16    C        0.015060000     2.519590000     1.027930000
  17    C       -1.226820000     0.103640000    -0.422650000
  18    H       -1.681920000     4.318940000    -1.317750000
  19    H        0.505470000     5.492560000    -1.427240000
  20    H        2.375950000     4.760660000     0.032570000
  21    H        2.063130000     2.870740000     1.599140000
  22    C       -0.175490000     1.385730000     1.976270000
  23    H       -0.916230000     1.640910000     2.750710000
  24    H        0.749340000     1.096610000     2.490440000
  25    H       -0.558610000     0.490780000     1.461480000
  26    H       -0.822750000     0.442660000    -1.389790000
  27    H       -1.420590000    -0.972680000    -0.507890000
  28    H       -0.419980000     0.234480000     0.315350000


           Empirical Formula: C14 H14  =    28 atoms



      MOLECULAR POINT GROUP   :   C2  


                  EIGENVALUES  
 -31.21166 -30.22500 -28.34481 -26.88988 -26.52853 -24.72204 -24.30712 -23.04331
 -21.64602 -20.68327 -20.29997 -19.13127 -17.71564 -16.50045 -16.47689 -15.64892
 -15.42873 -15.22143 -14.70459 -14.10482 -13.96872 -13.86858 -13.85164 -13.42986
 -13.15813 -12.78459 -12.41971 -12.00193 -11.83449 -11.60010 -11.45396  -9.98341
  -9.60816  -9.41519  -9.08215  -0.01295   0.33402   0.35690   0.58448   2.54004
   2.72541   3.75988   4.00968   4.24417   4.49575   4.86237   4.96408   5.01226
   5.08210   5.12518   5.13464   5.19401   5.31565   5.39049   5.43759   5.70165
   5.75092   5.94797   5.96461   5.98464   6.03193   6.10432   6.24269   6.26829
   6.29330   6.31254   6.38724   6.40202   6.69259   7.26438


              NET ATOMIC CHARGES AND DIPOLE CONTRIBUTIONS

  ATOM NO.   TYPE          CHARGE      No. of ELECS.   s-Pop       p-Pop       
    1          C           0.039756        3.9602     1.06706     2.89319
    2          C          -0.044984        4.0450     1.06357     2.98141
    3          C          -0.142136        4.1421     1.08459     3.05755
    4          C          -0.162768        4.1628     1.08045     3.08232
    5          C          -0.137983        4.1380     1.08280     3.05518
    6          C          -0.181257        4.1813     1.08265     3.09860
    7          H           0.155870        0.8441     0.84413
    8          H           0.150208        0.8498     0.84979
    9          H           0.146249        0.8538     0.85375
   10          H           0.151170        0.8488     0.84883
   11          C          -0.044828        4.0448     1.06359     2.98124
   12          C          -0.142179        4.1422     1.08458     3.05760
   13          C          -0.162680        4.1627     1.08046     3.08223
   14          C          -0.138055        4.1381     1.08280     3.05525
   15          C          -0.181124        4.1811     1.08266     3.09847
   16          C           0.039396        3.9606     1.06705     2.89355
   17          C          -0.490619        4.4906     1.05548     3.43514
   18          H           0.155870        0.8441     0.84413
   19          H           0.150198        0.8498     0.84980
   20          H           0.146251        0.8537     0.85375
   21          H           0.151162        0.8488     0.84884
   22          C          -0.490416        4.4904     1.05546     3.43496
   23          H           0.170810        0.8292     0.82919
   24          H           0.155132        0.8449     0.84487
   25          H           0.190462        0.8095     0.80954
   26          H           0.170775        0.8292     0.82922
   27          H           0.155100        0.8449     0.84490
   28          H           0.190620        0.8094     0.80938
 DIPOLE           X         Y         Z       TOTAL
 POINT-CHG.     0.377    -0.705     0.209     0.826
 HYBRID         0.039    -0.075     0.022     0.087
 SUM            0.415    -0.780     0.230     0.913


          ATOMIC ORBITAL ELECTRON POPULATIONS

     Atom    s        px        py        pz   
    1  C   1.06706   0.96689   0.96473   0.96157
    2  C   1.06357   0.97609   0.98460   1.02072
    3  C   1.08459   0.98110   1.07617   1.00028
    4  C   1.08045   1.04646   1.01319   1.02268
    5  C   1.08280   1.05659   1.00585   0.99273
    6  C   1.08265   0.98734   1.07830   1.03297
    7  H   0.84413
    8  H   0.84979
    9  H   0.85375
   10  H   0.84883
   11  C   1.06359   0.97787   0.99762   1.00575
   12  C   1.08458   1.04250   0.99247   1.02263
   13  C   1.08046   0.99034   1.05244   1.03945
   14  C   1.08280   1.05707   1.00823   0.98995
   15  C   1.08266   1.04253   1.01371   1.04223
   16  C   1.06705   0.96932   0.96351   0.96072
   17  C   1.05548   1.10268   1.14162   1.19084
   18  H   0.84413
   19  H   0.84980
   20  H   0.85375
   21  H   0.84884
   22  C   1.05546   1.18878   1.11398   1.13219
   23  H   0.82919
   24  H   0.84487
   25  H   0.80954
   26  H   0.82922
   27  H   0.84490
   28  H   0.80938

 **********************
 *                    *
 * JOB ENDED NORMALLY *
 *                    *
 **********************



 TOTAL JOB TIME:             0.14 SECONDS

 == MOPAC DONE ==
