 *******************************************************************************
 **                                                                           **
 **                              MOPAC v22.1.0                                **
 **                                                                           **
 *******************************************************************************
 **          Digital Object Identifier (DOI): 10.5281/zenodo.6511958          **
 **    Visit the DOI location for information on how to cite this program.    **
 *******************************************************************************

                              PM7 CALCULATION RESULTS

 *******************************************************************************
 *  CALCULATION DONE:                                Mon Jan 22 16:15:43 2024  *
 *  PM7        - The PM7 Hamiltonian to be used
 *  SINGLET    - SPIN STATE DEFINED AS A SINGLET
 *  NOOPT      - DO NOT OPTIMIZE ANY COORDINATES
 *
 *
 *
 *                 CHARGE ON SYSTEM = 0
 *
 *
 *
 *  T=         - A TIME OF 172800.0 SECONDS REQUESTED
 *  DUMP=N     - RESTART FILE WRITTEN EVERY 7200.0 SECONDS REQUESTED
 *  LARGE      - EXPANDED OUTPUT TO BE PRINTED
 *******************************************************************************
 LARGE CHARGE=0 SINGLET NOOPT PM7
 2,2'-dimethyldefenyl TOP BARRIER 100

   ATOM   CHEMICAL          X               Y               Z
  NUMBER   SYMBOL      (ANGSTROMS)     (ANGSTROMS)     (ANGSTROMS)
 
     1       C         -2.43927000      0.88600000     -0.04953000   
     2       C         -2.33805000      2.25274000      0.24388000   
     3       C         -3.47731000      2.98425000      0.58226000   
     4       C         -4.72023000      2.35832000      0.63359000   
     5       C         -4.82419000      0.99901000      0.34578000   
     6       C         -3.68953000      0.26662000      0.00483000   
     7       H         -3.38848000      4.04647000      0.80479000   
     8       H         -5.60652000      2.93028000      0.89728000   
     9       H         -5.79401000      0.50771000      0.38594000   
    10       H         -3.77862000     -0.79354000     -0.22128000   
    11       C         -1.03638000      2.93383000      0.19889000   
    12       C         -0.70378000      3.69248000     -0.92417000   
    13       C          0.52541000      4.34385000     -0.98871000   
    14       C          1.42315000      4.23674000      0.07144000   
    15       C          1.09306000      3.48276000      1.19516000   
    16       C         -0.13728000      2.82665000      1.26873000   
    17       C         -1.22682000      0.10364000     -0.42265000   
    18       H         -1.41088000      3.77252000     -1.74837000   
    19       H          0.78234000      4.93452000     -1.86464000   
    20       H          2.38429000      4.74409000      0.02293000   
    21       H          1.79770000      3.40582000      2.02012000   
    22       C         -0.49340000      2.02621000      2.47447000   
    23       H         -1.34487000      2.47714000      3.00854000   
    24       H          0.33295000      1.93866000      3.19054000   
    25       H         -0.80188000      1.00466000      2.20244000   
    26       H         -0.82275000      0.44266000     -1.38979000   
    27       H         -1.42059000     -0.97268000     -0.50789000   
    28       H         -0.41998000      0.23448000      0.31535000   
 


          CARTESIAN COORDINATES 

    NO.       ATOM           X           Y           Z

     1         C         -2.4393      0.8860     -0.0495
     2         C         -2.3380      2.2527      0.2439
     3         C         -3.4773      2.9842      0.5823
     4         C         -4.7202      2.3583      0.6336
     5         C         -4.8242      0.9990      0.3458
     6         C         -3.6895      0.2666      0.0048
     7         H         -3.3885      4.0465      0.8048
     8         H         -5.6065      2.9303      0.8973
     9         H         -5.7940      0.5077      0.3859
    10         H         -3.7786     -0.7935     -0.2213
    11         C         -1.0364      2.9338      0.1989
    12         C         -0.7038      3.6925     -0.9242
    13         C          0.5254      4.3438     -0.9887
    14         C          1.4232      4.2367      0.0714
    15         C          1.0931      3.4828      1.1952
    16         C         -0.1373      2.8266      1.2687
    17         C         -1.2268      0.1036     -0.4227
    18         H         -1.4109      3.7725     -1.7484
    19         H          0.7823      4.9345     -1.8646
    20         H          2.3843      4.7441      0.0229
    21         H          1.7977      3.4058      2.0201
    22         C         -0.4934      2.0262      2.4745
    23         H         -1.3449      2.4771      3.0085
    24         H          0.3330      1.9387      3.1905
    25         H         -0.8019      1.0047      2.2024
    26         H         -0.8228      0.4427     -1.3898
    27         H         -1.4206     -0.9727     -0.5079
    28         H         -0.4200      0.2345      0.3154

 General Reference for PM7:
 "Optimization of Parameters for Semiempirical Methods VI: More Modifications to the 
 NDDO Approximations and Re-optimization of Parameters", J. J. P. Stewart, J. Mol. Mod., 1:32, 19 (2013)
 https://link.springer.com/article/10.1007/s00894-012-1667-x

           Empirical Formula: C14 H14  =    28 atoms



      MOLECULAR POINT GROUP   :   C2  


 SINGLET STATE CALCULATION


      RHF CALCULATION, NO. OF DOUBLY OCCUPIED LEVELS = 35


 -------------------------------------------------------------------------------
 LARGE CHARGE=0 SINGLET NOOPT PM7
 2,2'-dimethyldefenyl TOP BARRIER 100



     NO PARAMETERS MARKED FOR OPTIMIZATION, SO 1SCF WAS USED  
     SCF FIELD WAS ACHIEVED                                   


                              PM7 CALCULATION
                                                       MOPAC v22.1.0 Windows
                                                       Mon Jan 22 16:15:43 2024




          FINAL HEAT OF FORMATION =         26.22623 KCAL/MOL =     109.73057 KJ/MOL


          COSMO AREA              =        221.56 SQUARE ANGSTROMS
          COSMO VOLUME            =        243.63 CUBIC ANGSTROMS

          IONIZATION POTENTIAL    =          9.250051 EV
          HOMO LUMO ENERGIES (EV) =         -9.250  0.181
          NO. OF FILLED LEVELS    =         35
          MOLECULAR WEIGHT        =        182.2646         POINT GROUP:  C2  

          MOLECULAR DIMENSIONS (Angstroms)

            Atom       Atom       Distance
            H    20    H     9     9.21755
            H    19    H    24     5.55270
            H    27    H     8     5.42311


          SCF CALCULATIONS        =          1
 
          WALL-CLOCK TIME         =      0.125 SECONDS
          COMPUTATION TIME        =      0.516 SECONDS




   ATOM   CHEMICAL          X               Y               Z
  NUMBER   SYMBOL      (ANGSTROMS)     (ANGSTROMS)     (ANGSTROMS)
 
     1       C         -2.43927000      0.88600000     -0.04953000   
     2       C         -2.33805000      2.25274000      0.24388000   
     3       C         -3.47731000      2.98425000      0.58226000   
     4       C         -4.72023000      2.35832000      0.63359000   
     5       C         -4.82419000      0.99901000      0.34578000   
     6       C         -3.68953000      0.26662000      0.00483000   
     7       H         -3.38848000      4.04647000      0.80479000   
     8       H         -5.60652000      2.93028000      0.89728000   
     9       H         -5.79401000      0.50771000      0.38594000   
    10       H         -3.77862000     -0.79354000     -0.22128000   
    11       C         -1.03638000      2.93383000      0.19889000   
    12       C         -0.70378000      3.69248000     -0.92417000   
    13       C          0.52541000      4.34385000     -0.98871000   
    14       C          1.42315000      4.23674000      0.07144000   
    15       C          1.09306000      3.48276000      1.19516000   
    16       C         -0.13728000      2.82665000      1.26873000   
    17       C         -1.22682000      0.10364000     -0.42265000   
    18       H         -1.41088000      3.77252000     -1.74837000   
    19       H          0.78234000      4.93452000     -1.86464000   
    20       H          2.38429000      4.74409000      0.02293000   
    21       H          1.79770000      3.40582000      2.02012000   
    22       C         -0.49340000      2.02621000      2.47447000   
    23       H         -1.34487000      2.47714000      3.00854000   
    24       H          0.33295000      1.93866000      3.19054000   
    25       H         -0.80188000      1.00466000      2.20244000   
    26       H         -0.82275000      0.44266000     -1.38979000   
    27       H         -1.42059000     -0.97268000     -0.50789000   
    28       H         -0.41998000      0.23448000      0.31535000   

                             CARTESIAN COORDINATES

   1    C       -2.439270000     0.886000000    -0.049530000
   2    C       -2.338050000     2.252740000     0.243880000
   3    C       -3.477310000     2.984250000     0.582260000
   4    C       -4.720230000     2.358320000     0.633590000
   5    C       -4.824190000     0.999010000     0.345780000
   6    C       -3.689530000     0.266620000     0.004830000
   7    H       -3.388480000     4.046470000     0.804790000
   8    H       -5.606520000     2.930280000     0.897280000
   9    H       -5.794010000     0.507710000     0.385940000
  10    H       -3.778620000    -0.793540000    -0.221280000
  11    C       -1.036380000     2.933830000     0.198890000
  12    C       -0.703780000     3.692480000    -0.924170000
  13    C        0.525410000     4.343850000    -0.988710000
  14    C        1.423150000     4.236740000     0.071440000
  15    C        1.093060000     3.482760000     1.195160000
  16    C       -0.137280000     2.826650000     1.268730000
  17    C       -1.226820000     0.103640000    -0.422650000
  18    H       -1.410880000     3.772520000    -1.748370000
  19    H        0.782340000     4.934520000    -1.864640000
  20    H        2.384290000     4.744090000     0.022930000
  21    H        1.797700000     3.405820000     2.020120000
  22    C       -0.493400000     2.026210000     2.474470000
  23    H       -1.344870000     2.477140000     3.008540000
  24    H        0.332950000     1.938660000     3.190540000
  25    H       -0.801880000     1.004660000     2.202440000
  26    H       -0.822750000     0.442660000    -1.389790000
  27    H       -1.420590000    -0.972680000    -0.507890000
  28    H       -0.419980000     0.234480000     0.315350000


           Empirical Formula: C14 H14  =    28 atoms



      MOLECULAR POINT GROUP   :   C2  


                  EIGENVALUES  
 -31.01590 -30.24205 -27.63798 -26.94139 -26.73627 -24.79425 -23.82712 -23.37625
 -21.54447 -20.52792 -20.41416 -19.25015 -17.57987 -16.54000 -16.03372 -15.80245
 -15.21928 -14.72615 -14.71109 -14.15333 -14.07372 -13.93407 -13.84875 -13.25413
 -13.21329 -12.79064 -12.70470 -12.27743 -11.93570 -11.85799 -11.42019  -9.73620
  -9.61702  -9.44315  -9.25005   0.18091   0.34026   0.34893   0.39585   2.58799
   2.64984   3.75454   4.09298   4.23702   4.57048   4.93910   4.95553   5.04994
   5.08171   5.13062   5.18892   5.32031   5.36833   5.38706   5.58149   5.72399
   5.79068   5.84474   5.96898   5.98009   5.99233   6.08892   6.25633   6.26521
   6.30235   6.30833   6.38296   6.41482   6.80137   6.98813


              NET ATOMIC CHARGES AND DIPOLE CONTRIBUTIONS

  ATOM NO.   TYPE          CHARGE      No. of ELECS.   s-Pop       p-Pop       
    1          C           0.039310        3.9607     1.06767     2.89302
    2          C          -0.046726        4.0467     1.06350     2.98323
    3          C          -0.141666        4.1417     1.08431     3.05736
    4          C          -0.163816        4.1638     1.08041     3.08341
    5          C          -0.137986        4.1380     1.08279     3.05519
    6          C          -0.181469        4.1815     1.08266     3.09881
    7          H           0.155957        0.8440     0.84404
    8          H           0.150192        0.8498     0.84981
    9          H           0.146227        0.8538     0.85377
   10          H           0.151548        0.8485     0.84845
   11          C          -0.046730        4.0467     1.06350     2.98323
   12          C          -0.141609        4.1416     1.08430     3.05731
   13          C          -0.163801        4.1638     1.08041     3.08339
   14          C          -0.137997        4.1380     1.08280     3.05520
   15          C          -0.181434        4.1814     1.08266     3.09878
   16          C           0.039190        3.9608     1.06767     2.89314
   17          C          -0.456989        4.4570     1.04970     3.40729
   18          H           0.155947        0.8441     0.84405
   19          H           0.150187        0.8498     0.84981
   20          H           0.146229        0.8538     0.85377
   21          H           0.151549        0.8485     0.84845
   22          C          -0.456912        4.4569     1.04969     3.40722
   23          H           0.166539        0.8335     0.83346
   24          H           0.154361        0.8456     0.84564
   25          H           0.164484        0.8355     0.83552
   26          H           0.166510        0.8335     0.83349
   27          H           0.154370        0.8456     0.84563
   28          H           0.164538        0.8355     0.83546
 DIPOLE           X         Y         Z       TOTAL
 POINT-CHG.     0.292    -0.541     0.282     0.676
 HYBRID         0.041    -0.076     0.039     0.094
 SUM            0.332    -0.617     0.321     0.770


          ATOMIC ORBITAL ELECTRON POPULATIONS

     Atom    s        px        py        pz   
    1  C   1.06767   0.96773   0.96451   0.96078
    2  C   1.06350   0.97679   0.98497   1.02147
    3  C   1.08431   0.98075   1.07670   0.99991
    4  C   1.08041   1.04649   1.01337   1.02355
    5  C   1.08279   1.05670   1.00572   0.99277
    6  C   1.08266   0.98716   1.07842   1.03323
    7  H   0.84404
    8  H   0.84981
    9  H   0.85377
   10  H   0.84845
   11  C   1.06350   0.98118   1.00760   0.99444
   12  C   1.08430   1.02781   0.99057   1.03893
   13  C   1.08041   0.99643   1.03495   1.05202
   14  C   1.08280   1.05752   1.00987   0.98780
   15  C   1.08266   1.03174   1.01703   1.05001
   16  C   1.06767   0.96854   0.96332   0.96127
   17  C   1.04970   1.08930   1.13852   1.17947
   18  H   0.84405
   19  H   0.84981
   20  H   0.85377
   21  H   0.84845
   22  C   1.04969   1.17795   1.14462   1.08465
   23  H   0.83346
   24  H   0.84564
   25  H   0.83552
   26  H   0.83349
   27  H   0.84563
   28  H   0.83546

 **********************
 *                    *
 * JOB ENDED NORMALLY *
 *                    *
 **********************



 TOTAL JOB TIME:             0.14 SECONDS

 == MOPAC DONE ==
