 *******************************************************************************
 **                                                                           **
 **                              MOPAC v22.1.0                                **
 **                                                                           **
 *******************************************************************************
 **          Digital Object Identifier (DOI): 10.5281/zenodo.6511958          **
 **    Visit the DOI location for information on how to cite this program.    **
 *******************************************************************************

                              PM6 CALCULATION RESULTS

 *******************************************************************************
 *  CALCULATION DONE:                                Tue Jan 16 12:25:48 2024  *
 *  PM6        - The PM6 Hamiltonian to be used
 *  SINGLET    - SPIN STATE DEFINED AS A SINGLET
 *
 *
 *
 *                 CHARGE ON SYSTEM = 0
 *
 *
 *
 *  T=         - A TIME OF 172800.0 SECONDS REQUESTED
 *  DUMP=N     - RESTART FILE WRITTEN EVERY 7200.0 SECONDS REQUESTED
 *  AUX        - OUTPUT AUXILIARY INFORMATION
 *  LARGE      - EXPANDED OUTPUT TO BE PRINTED
 *******************************************************************************
 AUX LARGE CHARGE=0 SINGLET  PM6
 nitrobenzen

   ATOM   CHEMICAL          X               Y               Z
  NUMBER   SYMBOL      (ANGSTROMS)     (ANGSTROMS)     (ANGSTROMS)
 
     1       C         -3.60770000  *   2.92090000  *   0.23124000  *
     2       C         -2.36066000  *   2.26995000  *   0.13240000  *
     3       C         -2.40400000  *   0.87155000  *  -0.03905000  *
     4       C         -3.61276000  *   0.16546000  *  -0.09737000  *
     5       C         -4.82198000  *   0.84290000  *  -0.00523000  *
     6       C         -4.81975000  *   2.22219000  *   0.15420000  *
     7       H         -1.49010000  *   0.29244000  *  -0.14240000  *
     8       H         -3.60269000  *  -0.91440000  *  -0.21965000  *
     9       H         -5.76055000  *   0.29831000  *  -0.05740000  *
    10       H         -5.76031000  *   2.76288000  *   0.22475000  *
    11       C         -1.06981000  *   3.01910000  *   0.20615000  *
    12       C         -0.99578000  *   4.40533000  *  -0.03827000  *
    13       C          0.21125000  *   5.11226000  *   0.04142000  *
    14       C          1.39079000  *   4.44676000  *   0.35033000  *
    15       C          1.35933000  *   3.07906000  *   0.58758000  *
    16       C          0.14628000  *   2.38056000  *   0.52546000  *
    17       H         -3.66707000  *   3.99510000  *   0.38244000  *
    18       H         -1.88198000  *   4.97333000  *  -0.30896000  *
    19       H          0.22380000  *   6.18311000  *  -0.14368000  *
    20       H          2.32901000  *   4.99162000  *   0.40571000  *
    21       H          2.27694000  *   2.54763000  *   0.82745000  *
    22       H          0.17824000  *   1.31722000  *   0.74590000  *
 


          CARTESIAN COORDINATES 

    NO.       ATOM           X           Y           Z

     1         C         -3.6077      2.9209      0.2312
     2         C         -2.3607      2.2700      0.1324
     3         C         -2.4040      0.8716     -0.0391
     4         C         -3.6128      0.1655     -0.0974
     5         C         -4.8220      0.8429     -0.0052
     6         C         -4.8197      2.2222      0.1542
     7         H         -1.4901      0.2924     -0.1424
     8         H         -3.6027     -0.9144     -0.2197
     9         H         -5.7606      0.2983     -0.0574
    10         H         -5.7603      2.7629      0.2248
    11         C         -1.0698      3.0191      0.2061
    12         C         -0.9958      4.4053     -0.0383
    13         C          0.2113      5.1123      0.0414
    14         C          1.3908      4.4468      0.3503
    15         C          1.3593      3.0791      0.5876
    16         C          0.1463      2.3806      0.5255
    17         H         -3.6671      3.9951      0.3824
    18         H         -1.8820      4.9733     -0.3090
    19         H          0.2238      6.1831     -0.1437
    20         H          2.3290      4.9916      0.4057
    21         H          2.2769      2.5476      0.8275
    22         H          0.1782      1.3172      0.7459

 General Reference for PM6:
 "Optimization of Parameters for Semiempirical Methods V: Modification of NDDO Approximations
 and Application to 70 Elements", J. J. P. Stewart, J. Mol. Mod., 13, 1173-1213 (2007)
 URL: https://link.springer.com/article/10.1007/s00894-007-0233-4

           Empirical Formula: C12 H10  =    22 atoms



      MOLECULAR POINT GROUP   :   D2  


 SINGLET STATE CALCULATION


      RHF CALCULATION, NO. OF DOUBLY OCCUPIED LEVELS = 29


          Geometry optimization using EF

          DIAGONAL MATRIX USED AS START HESSIAN

 CYCLE:     1 TIME:   0.102 TIME LEFT:  2.00D  GRAD.:    29.414 HEAT:  49.84521
 CYCLE:     2 TIME:   0.047 TIME LEFT:  2.00D  GRAD.:    27.588 HEAT:  49.64188
 CYCLE:     3 TIME:   0.035 TIME LEFT:  2.00D  GRAD.:    20.733 HEAT:  49.39679
 CYCLE:     4 TIME:   0.035 TIME LEFT:  2.00D  GRAD.:    30.277 HEAT:  49.30994
 CYCLE:     5 TIME:   0.016 TIME LEFT:  2.00D  GRAD.:    17.791 HEAT:  49.04499
 CYCLE:     6 TIME:   0.016 TIME LEFT:  2.00D  GRAD.:    30.232 HEAT:  48.93211
 CYCLE:     7 TIME:   0.031 TIME LEFT:  2.00D  GRAD.:    31.514 HEAT:  48.77703
 CYCLE:     8 TIME:   0.031 TIME LEFT:  2.00D  GRAD.:    32.141 HEAT:  48.72699
 CYCLE:     9 TIME:   0.016 TIME LEFT:  2.00D  GRAD.:    18.860 HEAT:  48.52944
 CYCLE:    10 TIME:   0.031 TIME LEFT:  2.00D  GRAD.:    19.427 HEAT:  48.52039
 CYCLE:    11 TIME:   0.016 TIME LEFT:  2.00D  GRAD.:    10.087 HEAT:  48.41896
 CYCLE:    12 TIME:   0.016 TIME LEFT:  2.00D  GRAD.:     9.776 HEAT:  48.41172
 CYCLE:    13 TIME:   0.031 TIME LEFT:  2.00D  GRAD.:     6.566 HEAT:  48.37406
 CYCLE:    14 TIME:   0.016 TIME LEFT:  2.00D  GRAD.:     8.411 HEAT:  48.37329
 CYCLE:    15 TIME:   0.031 TIME LEFT:  2.00D  GRAD.:     3.693 HEAT:  48.34501
 CYCLE:    16 TIME:   0.016 TIME LEFT:  2.00D  GRAD.:     6.149 HEAT:  48.34282
 CYCLE:    17 TIME:   0.031 TIME LEFT:  2.00D  GRAD.:     3.005 HEAT:  48.32758
 CYCLE:    18 TIME:   0.031 TIME LEFT:  2.00D  GRAD.:     4.829 HEAT:  48.32584
 CYCLE:    19 TIME:   0.016 TIME LEFT:  2.00D  GRAD.:     2.743 HEAT:  48.31410
 CYCLE:    20 TIME:   0.031 TIME LEFT:  2.00D  GRAD.:     3.457 HEAT:  48.30427
 CYCLE:    21 TIME:   0.016 TIME LEFT:  2.00D  GRAD.:     4.968 HEAT:  48.28418
 CYCLE:    22 TIME:   0.031 TIME LEFT:  2.00D  GRAD.:     7.301 HEAT:  48.21146
 CYCLE:    23 TIME:   0.031 TIME LEFT:  2.00D  GRAD.:     8.954 HEAT:  48.10540
 CYCLE:    24 TIME:   0.016 TIME LEFT:  2.00D  GRAD.:    16.839 HEAT:  48.01574
 CYCLE:    25 TIME:   0.031 TIME LEFT:  2.00D  GRAD.:     8.439 HEAT:  47.85914
 CYCLE:    26 TIME:   0.016 TIME LEFT:  2.00D  GRAD.:    11.563 HEAT:  47.73455
 CYCLE:    27 TIME:   0.047 TIME LEFT:  2.00D  GRAD.:    10.351 HEAT:  47.55523
 CYCLE:    28 TIME:   0.016 TIME LEFT:  2.00D  GRAD.:    14.875 HEAT:  47.46800
 CYCLE:    29 TIME:   0.031 TIME LEFT:  2.00D  GRAD.:    10.131 HEAT:  47.34494
 CYCLE:    30 TIME:   0.031 TIME LEFT:  2.00D  GRAD.:    12.560 HEAT:  47.30572
 CYCLE:    31 TIME:   0.047 TIME LEFT:  2.00D  GRAD.:     7.380 HEAT:  47.21683
 CYCLE:    32 TIME:   0.016 TIME LEFT:  2.00D  GRAD.:    12.935 HEAT:  47.19871
 CYCLE:    33 TIME:   0.031 TIME LEFT:  2.00D  GRAD.:     5.155 HEAT:  47.13253
 CYCLE:    34 TIME:   0.031 TIME LEFT:  2.00D  GRAD.:     4.298 HEAT:  47.10059
 CYCLE:    35 TIME:   0.031 TIME LEFT:  2.00D  GRAD.:     9.642 HEAT:  47.09023
 CYCLE:    36 TIME:   0.031 TIME LEFT:  2.00D  GRAD.:     7.107 HEAT:  47.08910
 CYCLE:    37 TIME:   0.031 TIME LEFT:  2.00D  GRAD.:     7.823 HEAT:  47.07940
 CYCLE:    38 TIME:   0.031 TIME LEFT:  2.00D  GRAD.:     4.029 HEAT:  47.04532
 CYCLE:    39 TIME:   0.016 TIME LEFT:  2.00D  GRAD.:     1.850 HEAT:  47.03860
 CYCLE:    40 TIME:   0.016 TIME LEFT:  2.00D  GRAD.:     1.578 HEAT:  47.03671
 CYCLE:    41 TIME:   0.031 TIME LEFT:  2.00D  GRAD.:     0.984 HEAT:  47.03437

     GRADIENT =  0.98400 IS LESS THAN CUTOFF =  1.00000



 -------------------------------------------------------------------------------
 AUX LARGE CHARGE=0 SINGLET  PM6
 nitrobenzen



     GEOMETRY OPTIMISED USING EIGENVECTOR FOLLOWING (EF).     
     SCF FIELD WAS ACHIEVED                                   


                              PM6 CALCULATION
                                                       MOPAC v22.1.0 Windows
                                                       Tue Jan 16 12:25:50 2024




          FINAL HEAT OF FORMATION =         47.03436 KCAL/MOL =     196.79175 KJ/MOL


          COSMO AREA              =        198.00 SQUARE ANGSTROMS
          COSMO VOLUME            =        201.51 CUBIC ANGSTROMS

          GRADIENT NORM           =          0.98400          =       0.20979 PER ATOM
          IONIZATION POTENTIAL    =          9.124778 EV
          HOMO LUMO ENERGIES (EV) =         -9.125 -0.065
          NO. OF FILLED LEVELS    =         29
          MOLECULAR WEIGHT        =        154.2110         POINT GROUP:  D2  

          MOLECULAR DIMENSIONS (Angstroms)

            Atom       Atom       Distance
            H    20    H     9     9.26204
            H    19    H    22     4.33475
            H     8    H    17     3.54586


          SCF CALCULATIONS        =         43
 
          WALL-CLOCK TIME         =      1.344 SECONDS
          COMPUTATION TIME        =      2.281 SECONDS




   ATOM   CHEMICAL          X               Y               Z
  NUMBER   SYMBOL      (ANGSTROMS)     (ANGSTROMS)     (ANGSTROMS)
 
     1       C         -3.53984072  *   2.86681775  *   0.59610547  *
     2       C         -2.35160151  *   2.26690976  *   0.14755651  *
     3       C         -2.38571652  *   0.96627994  *  -0.37989058  *
     4       C         -3.59883051  *   0.27840874  *  -0.46363424  *
     5       C         -4.78071913  *   0.87803153  *  -0.01742557  *
     6       C         -4.74847293  *   2.17115377  *   0.51461566  *
     7       H         -1.46727641  *   0.49853993  *  -0.73030304  *
     8       H         -3.62338720  *  -0.72719262  *  -0.88008282  *
     9       H         -5.72330304  *   0.33895943  *  -0.08341765  *
    10       H         -5.66728960  *   2.63775753  *   0.86588780  *
    11       C         -1.07245918  *   3.00809675  *   0.21896208  *
    12       C         -0.96763930  *   4.27613464  *  -0.37548100  *
    13       C          0.23753264  *   4.97928945  *  -0.31609777  *
    14       C          1.34363680  *   4.42508502  *   0.33647274  *
    15       C          1.24233519  *   3.16227458  *   0.92897870  *
    16       C          0.03965562  *   2.45274184  *   0.87135959  *
    17       H         -3.51628798  *   3.87295142  *   1.01192090  *
    18       H         -1.82627254  *   4.70598599  *  -0.88952228  *
    19       H          0.31299406  *   5.96076681  *  -0.78054751  *
    20       H          2.28128293  *   4.97519498  *   0.38275011  *
    21       H          2.10256464  *   2.72913046  *   1.43682801  *
    22       H         -0.03695346  *   1.47170308  *   1.33693764  *

                             CARTESIAN COORDINATES

   1    C       -3.539840724     2.866817747     0.596105468
   2    C       -2.351601511     2.266909759     0.147556511
   3    C       -2.385716516     0.966279942    -0.379890580
   4    C       -3.598830515     0.278408737    -0.463634238
   5    C       -4.780719134     0.878031528    -0.017425568
   6    C       -4.748472928     2.171153769     0.514615662
   7    H       -1.467276414     0.498539932    -0.730303045
   8    H       -3.623387202    -0.727192623    -0.880082818
   9    H       -5.723303036     0.338959431    -0.083417646
  10    H       -5.667289604     2.637757533     0.865887802
  11    C       -1.072459179     3.008096754     0.218962083
  12    C       -0.967639300     4.276134639    -0.375481002
  13    C        0.237532644     4.979289450    -0.316097767
  14    C        1.343636803     4.425085015     0.336472741
  15    C        1.242335193     3.162274577     0.928978698
  16    C        0.039655618     2.452741838     0.871359588
  17    H       -3.516287982     3.872951418     1.011920896
  18    H       -1.826272540     4.705985994    -0.889522277
  19    H        0.312994064     5.960766813    -0.780547510
  20    H        2.281282925     4.975194983     0.382750111
  21    H        2.102564642     2.729130460     1.436828012
  22    H       -0.036953463     1.471703082     1.336937639


           Empirical Formula: C12 H10  =    22 atoms



      MOLECULAR POINT GROUP   :   D2  


                  EIGENVALUES  
 -30.01509 -29.66496 -27.04064 -26.15772 -25.77535 -24.84816 -21.91664 -21.76180
 -20.84498 -20.14161 -18.03423 -16.86514 -15.94349 -15.55500 -15.07163 -15.00304
 -14.33001 -14.19602 -14.08291 -13.33721 -12.95984 -12.61437 -12.10816 -11.86344
 -11.71584 -10.01958  -9.73913  -9.70465  -9.12478  -0.06525   0.30509   0.33471
   0.63007   2.52741   2.73901   3.75305   4.32076   4.51339   4.58341   4.80899
   4.91795   5.02473   5.07599   5.20268   5.29141   5.34013   5.53748   5.56428
   5.71820   5.83578   6.03703   6.06506   6.16482   6.20792   6.21520   6.29888
   6.33883   6.39425


              NET ATOMIC CHARGES AND DIPOLE CONTRIBUTIONS

  ATOM NO.   TYPE          CHARGE      No. of ELECS.   s-Pop       p-Pop       
    1          C          -0.170236        4.1702     1.10854     3.06170
    2          C           0.014681        3.9853     1.08960     2.89572
    3          C          -0.169984        4.1700     1.10838     3.06160
    4          C          -0.130183        4.1302     1.10535     3.02483
    5          C          -0.156650        4.1567     1.10593     3.05072
    6          C          -0.130143        4.1301     1.10541     3.02473
    7          H           0.153817        0.8462     0.84618
    8          H           0.144409        0.8556     0.85559
    9          H           0.145996        0.8540     0.85400
   10          H           0.144473        0.8555     0.85553
   11          C           0.014648        3.9854     1.08953     2.89582
   12          C          -0.170523        4.1705     1.10862     3.06190
   13          C          -0.130170        4.1302     1.10531     3.02486
   14          C          -0.156441        4.1564     1.10598     3.05046
   15          C          -0.130186        4.1302     1.10551     3.02468
   16          C          -0.169915        4.1699     1.10832     3.06160
   17          H           0.153858        0.8461     0.84614
   18          H           0.153933        0.8461     0.84607
   19          H           0.144422        0.8556     0.85558
   20          H           0.146033        0.8540     0.85397
   21          H           0.144445        0.8556     0.85555
   22          H           0.153716        0.8463     0.84628
 DIPOLE           X         Y         Z       TOTAL
 POINT-CHG.    -0.002     0.005    -0.016     0.017
 HYBRID        -0.001    -0.001     0.000     0.001
 SUM           -0.003     0.005    -0.016     0.017


          ATOMIC ORBITAL ELECTRON POPULATIONS

     Atom    s        px        py        pz   
    1  C   1.10854   0.97576   1.06244   1.02350
    2  C   1.08960   0.95392   0.96360   0.97820
    3  C   1.10838   1.04479   0.99726   1.01955
    4  C   1.10535   0.97352   1.05059   1.00072
    5  C   1.10593   1.04284   1.00341   1.00447
    6  C   1.10541   1.03515   0.99255   0.99704
    7  H   0.84618
    8  H   0.85559
    9  H   0.85400
   10  H   0.85553
   11  C   1.08953   0.95458   0.96430   0.97694
   12  C   1.10862   1.03930   0.99625   1.02636
   13  C   1.10531   0.97505   1.04762   1.00220
   14  C   1.10598   1.04403   1.00544   1.00099
   15  C   1.10551   1.02837   0.99084   1.00547
   16  C   1.10832   0.97837   1.06009   1.02313
   17  H   0.84614
   18  H   0.84607
   19  H   0.85558
   20  H   0.85397
   21  H   0.85555
   22  H   0.84628
