 *******************************************************************************
 **                                                                           **
 **                              MOPAC v22.1.0                                **
 **                                                                           **
 *******************************************************************************
 **          Digital Object Identifier (DOI): 10.5281/zenodo.6511958          **
 **    Visit the DOI location for information on how to cite this program.    **
 *******************************************************************************

                              PM7 CALCULATION RESULTS

 *******************************************************************************
 *  CALCULATION DONE:                                Mon Jan 22 16:02:30 2024  *
 *  PM7        - The PM7 Hamiltonian to be used
 *  SINGLET    - SPIN STATE DEFINED AS A SINGLET
 *
 *
 *
 *                 CHARGE ON SYSTEM = 0
 *
 *
 *
 *  PRECISE    - TIGHTER CRITERIA TO BE USED
 *  T=         - A TIME OF 172800.0 SECONDS REQUESTED
 *  DUMP=N     - RESTART FILE WRITTEN EVERY 7200.0 SECONDS REQUESTED
 *  LARGE      - EXPANDED OUTPUT TO BE PRINTED
 *******************************************************************************
 PRECISE LARGE CHARGE=0 SINGLET  PM7
 2,2'-dimethyldifenyl

   ATOM   CHEMICAL          X               Y               Z
  NUMBER   SYMBOL      (ANGSTROMS)     (ANGSTROMS)     (ANGSTROMS)
 
     1       C         -2.49282000  *   0.84943000  *   0.27548000  *
     2       C         -2.36226000  *   2.26844000  *   0.19615000  *
     3       C         -3.53315000  *   3.04597000  *   0.08215000  *
     4       C         -4.79556000  *   2.45287000  *   0.08901000  *
     5       C         -4.91700000  *   1.07078000  *   0.19750000  *
     6       C         -3.77587000  *   0.27495000  *   0.28433000  *
     7       H         -3.47157000  *   4.12501000  *   0.00780000  *
     8       H         -5.68260000  *   3.06849000  *   0.01273000  *
     9       H         -5.89777000  *   0.61286000  *   0.20097000  *
    10       H         -3.89261000  *  -0.80076000  *   0.34244000  *
    11       C         -1.05048000  *   2.98760000  *   0.19933000  *
    12       C         -0.81442000  *   3.92032000  *  -0.83162000  *
    13       C          0.39019000  *   4.61915000  *  -0.90926000  *
    14       C          1.38043000  *   4.41181000  *   0.04632000  *
    15       C          1.16402000  *   3.51590000  *   1.09205000  *
    16       C         -0.04335000  *   2.80297000  *   1.19358000  *
    17       C         -1.32399000  *  -0.10421000  *   0.28861000  *
    18       H         -1.56133000  *   4.09505000  *  -1.59664000  *
    19       H          0.55662000  *   5.32187000  *  -1.71557000  *
    20       H          2.31373000  *   4.95658000  *  -0.01529000  *
    21       H          1.93834000  *   3.38862000  *   1.83931000  *
    22       C         -0.21010000  *   1.92336000  *   2.40776000  *
    23       H         -1.21152000  *   1.46156000  *   2.48107000  *
    24       H         -0.08346000  *   2.53909000  *   3.32330000  *
    25       H          0.56202000  *   1.12527000  *   2.40778000  *
    26       H         -0.34542000  *   0.39939000  *   0.18733000  *
    27       H         -1.40907000  *  -0.79598000  *  -0.57602000  *
    28       H         -1.33256000  *  -0.70300000  *   1.22376000  *
 


          CARTESIAN COORDINATES 

    NO.       ATOM           X           Y           Z

     1         C         -2.4928      0.8494      0.2755
     2         C         -2.3623      2.2684      0.1961
     3         C         -3.5332      3.0460      0.0822
     4         C         -4.7956      2.4529      0.0890
     5         C         -4.9170      1.0708      0.1975
     6         C         -3.7759      0.2750      0.2843
     7         H         -3.4716      4.1250      0.0078
     8         H         -5.6826      3.0685      0.0127
     9         H         -5.8978      0.6129      0.2010
    10         H         -3.8926     -0.8008      0.3424
    11         C         -1.0505      2.9876      0.1993
    12         C         -0.8144      3.9203     -0.8316
    13         C          0.3902      4.6192     -0.9093
    14         C          1.3804      4.4118      0.0463
    15         C          1.1640      3.5159      1.0920
    16         C         -0.0434      2.8030      1.1936
    17         C         -1.3240     -0.1042      0.2886
    18         H         -1.5613      4.0950     -1.5966
    19         H          0.5566      5.3219     -1.7156
    20         H          2.3137      4.9566     -0.0153
    21         H          1.9383      3.3886      1.8393
    22         C         -0.2101      1.9234      2.4078
    23         H         -1.2115      1.4616      2.4811
    24         H         -0.0835      2.5391      3.3233
    25         H          0.5620      1.1253      2.4078
    26         H         -0.3454      0.3994      0.1873
    27         H         -1.4091     -0.7960     -0.5760
    28         H         -1.3326     -0.7030      1.2238

 General Reference for PM7:
 "Optimization of Parameters for Semiempirical Methods VI: More Modifications to the 
 NDDO Approximations and Re-optimization of Parameters", J. J. P. Stewart, J. Mol. Mod., 1:32, 19 (2013)
 https://link.springer.com/article/10.1007/s00894-012-1667-x

           Empirical Formula: C14 H14  =    28 atoms



      MOLECULAR POINT GROUP   :   C2  


 SINGLET STATE CALCULATION


      RHF CALCULATION, NO. OF DOUBLY OCCUPIED LEVELS = 35


          Geometry optimization using EF

          DIAGONAL MATRIX USED AS START HESSIAN

 CYCLE:     1 TIME:   0.109 TIME LEFT:  2.00D  GRAD.:    51.923 HEAT:  31.44109
 CYCLE:     2 TIME:   0.203 TIME LEFT:  2.00D  GRAD.:    59.188 HEAT:  30.65523
 CYCLE:     3 TIME:   0.109 TIME LEFT:  2.00D  GRAD.:    65.781 HEAT:  30.56973
 CYCLE:     4 TIME:   0.203 TIME LEFT:  2.00D  GRAD.:    27.912 HEAT:  29.65351
 CYCLE:     5 TIME:   0.188 TIME LEFT:  2.00D  GRAD.:    27.914 HEAT:  29.51196
 CYCLE:     6 TIME:   0.109 TIME LEFT:  2.00D  GRAD.:    33.728 HEAT:  29.49133
 CYCLE:     7 TIME:   0.094 TIME LEFT:  2.00D  GRAD.:    28.411 HEAT:  29.34184
 CYCLE:     8 TIME:   0.109 TIME LEFT:  2.00D  GRAD.:    30.760 HEAT:  29.30306
 CYCLE:     9 TIME:   0.094 TIME LEFT:  2.00D  GRAD.:    23.773 HEAT:  29.14476
 CYCLE:    10 TIME:   0.109 TIME LEFT:  2.00D  GRAD.:    30.862 HEAT:  29.12638
 CYCLE:    11 TIME:   0.094 TIME LEFT:  2.00D  GRAD.:    34.903 HEAT:  29.08397
 CYCLE:    12 TIME:   0.203 TIME LEFT:  2.00D  GRAD.:    15.314 HEAT:  28.84452
 CYCLE:    13 TIME:   0.109 TIME LEFT:  2.00D  GRAD.:    16.116 HEAT:  28.79683
 CYCLE:    14 TIME:   0.094 TIME LEFT:  2.00D  GRAD.:    14.986 HEAT:  28.70915
 CYCLE:    15 TIME:   0.203 TIME LEFT:  2.00D  GRAD.:    14.915 HEAT:  28.66804
 CYCLE:    16 TIME:   0.109 TIME LEFT:  2.00D  GRAD.:    10.063 HEAT:  28.59098
 CYCLE:    17 TIME:   0.094 TIME LEFT:  2.00D  GRAD.:    11.779 HEAT:  28.53617
 CYCLE:    18 TIME:   0.109 TIME LEFT:  2.00D  GRAD.:    11.758 HEAT:  28.44185
 CYCLE:    19 TIME:   0.094 TIME LEFT:  2.00D  GRAD.:    13.324 HEAT:  28.30882
 CYCLE:    20 TIME:   0.109 TIME LEFT:  2.00D  GRAD.:    20.615 HEAT:  28.24757
 CYCLE:    21 TIME:   0.094 TIME LEFT:  2.00D  GRAD.:    13.405 HEAT:  28.10252
 CYCLE:    22 TIME:   0.109 TIME LEFT:  2.00D  GRAD.:    14.577 HEAT:  28.04272
 CYCLE:    23 TIME:   0.094 TIME LEFT:  2.00D  GRAD.:    11.567 HEAT:  27.94619
 CYCLE:    24 TIME:   0.094 TIME LEFT:  2.00D  GRAD.:    14.546 HEAT:  27.87320
 CYCLE:    25 TIME:   0.109 TIME LEFT:  2.00D  GRAD.:    10.669 HEAT:  27.76524
 CYCLE:    26 TIME:   0.094 TIME LEFT:  2.00D  GRAD.:     9.437 HEAT:  27.67960
 CYCLE:    27 TIME:   0.109 TIME LEFT:  2.00D  GRAD.:    10.053 HEAT:  27.61909
 CYCLE:    28 TIME:   0.094 TIME LEFT:  2.00D  GRAD.:     8.231 HEAT:  27.54036
 CYCLE:    29 TIME:   0.094 TIME LEFT:  2.00D  GRAD.:    13.945 HEAT:  27.47290
 CYCLE:    30 TIME:   0.109 TIME LEFT:  2.00D  GRAD.:     9.745 HEAT:  27.38494
 CYCLE:    31 TIME:   0.094 TIME LEFT:  2.00D  GRAD.:    11.952 HEAT:  27.32160
 CYCLE:    32 TIME:   0.094 TIME LEFT:  2.00D  GRAD.:    10.852 HEAT:  27.21065
 CYCLE:    33 TIME:   0.109 TIME LEFT:  2.00D  GRAD.:    16.683 HEAT:  27.12544
 CYCLE:    34 TIME:   0.094 TIME LEFT:  2.00D  GRAD.:    11.648 HEAT:  27.06138
 CYCLE:    35 TIME:   0.109 TIME LEFT:  2.00D  GRAD.:     8.275 HEAT:  26.99684
 CYCLE:    36 TIME:   0.094 TIME LEFT:  2.00D  GRAD.:     7.360 HEAT:  26.93588
 CYCLE:    37 TIME:   0.094 TIME LEFT:  2.00D  GRAD.:     8.440 HEAT:  26.85134
 CYCLE:    38 TIME:   0.109 TIME LEFT:  2.00D  GRAD.:    10.455 HEAT:  26.75345
 CYCLE:    39 TIME:   0.094 TIME LEFT:  2.00D  GRAD.:     5.749 HEAT:  26.69322
 CYCLE:    40 TIME:   0.109 TIME LEFT:  2.00D  GRAD.:     6.557 HEAT:  26.66008
 CYCLE:    41 TIME:   0.094 TIME LEFT:  2.00D  GRAD.:     5.743 HEAT:  26.63150
 CYCLE:    42 TIME:   0.094 TIME LEFT:  2.00D  GRAD.:     5.244 HEAT:  26.60844
 CYCLE:    43 TIME:   0.094 TIME LEFT:  2.00D  GRAD.:     4.851 HEAT:  26.58397
 CYCLE:    44 TIME:   0.109 TIME LEFT:  2.00D  GRAD.:     3.478 HEAT:  26.55769
 CYCLE:    45 TIME:   0.109 TIME LEFT:  2.00D  GRAD.:     3.735 HEAT:  26.52156
 CYCLE:    46 TIME:   0.125 TIME LEFT:  2.00D  GRAD.:     4.910 HEAT:  26.48978
 CYCLE:    47 TIME:   0.109 TIME LEFT:  2.00D  GRAD.:     5.653 HEAT:  26.45077
 CYCLE:    48 TIME:   0.094 TIME LEFT:  2.00D  GRAD.:     4.371 HEAT:  26.40692
 CYCLE:    49 TIME:   0.109 TIME LEFT:  2.00D  GRAD.:     3.527 HEAT:  26.36134
 CYCLE:    50 TIME:   0.094 TIME LEFT:  2.00D  GRAD.:     4.156 HEAT:  26.34048
 CYCLE:    51 TIME:   0.109 TIME LEFT:  2.00D  GRAD.:     3.979 HEAT:  26.31993
 CYCLE:    52 TIME:   0.094 TIME LEFT:  2.00D  GRAD.:     5.180 HEAT:  26.29964
 CYCLE:    53 TIME:   0.094 TIME LEFT:  2.00D  GRAD.:     6.255 HEAT:  26.28546
 CYCLE:    54 TIME:   0.098 TIME LEFT:  2.00D  GRAD.:     2.991 HEAT:  26.25742
 CYCLE:    55 TIME:   0.109 TIME LEFT:  2.00D  GRAD.:     2.516 HEAT:  26.24162
 CYCLE:    56 TIME:   0.094 TIME LEFT:  2.00D  GRAD.:     2.580 HEAT:  26.22661
 CYCLE:    57 TIME:   0.094 TIME LEFT:  2.00D  GRAD.:     2.435 HEAT:  26.21361
 CYCLE:    58 TIME:   0.094 TIME LEFT:  2.00D  GRAD.:     2.226 HEAT:  26.20206
 CYCLE:    59 TIME:   0.109 TIME LEFT:  2.00D  GRAD.:     2.026 HEAT:  26.19252
 CYCLE:    60 TIME:   0.094 TIME LEFT:  2.00D  GRAD.:     1.871 HEAT:  26.18494
 CYCLE:    61 TIME:   0.094 TIME LEFT:  2.00D  GRAD.:     1.952 HEAT:  26.17878
 CYCLE:    62 TIME:   0.094 TIME LEFT:  2.00D  GRAD.:     1.944 HEAT:  26.17273
 CYCLE:    63 TIME:   0.109 TIME LEFT:  2.00D  GRAD.:     1.828 HEAT:  26.16569
 CYCLE:    64 TIME:   0.094 TIME LEFT:  2.00D  GRAD.:     1.733 HEAT:  26.15845
 CYCLE:    65 TIME:   0.109 TIME LEFT:  2.00D  GRAD.:     1.465 HEAT:  26.15188
 CYCLE:    66 TIME:   0.109 TIME LEFT:  2.00D  GRAD.:     1.362 HEAT:  26.14783
 CYCLE:    67 TIME:   0.109 TIME LEFT:  2.00D  GRAD.:     1.063 HEAT:  26.14465
 CYCLE:    68 TIME:   0.109 TIME LEFT:  2.00D  GRAD.:     1.020 HEAT:  26.14195
 CYCLE:    69 TIME:   0.094 TIME LEFT:  2.00D  GRAD.:     0.892 HEAT:  26.13979
 CYCLE:    70 TIME:   0.094 TIME LEFT:  2.00D  GRAD.:     0.876 HEAT:  26.13807
 CYCLE:    71 TIME:   0.109 TIME LEFT:  2.00D  GRAD.:     0.835 HEAT:  26.13640
 CYCLE:    72 TIME:   0.094 TIME LEFT:  2.00D  GRAD.:     0.732 HEAT:  26.13497
 CYCLE:    73 TIME:   0.094 TIME LEFT:  2.00D  GRAD.:     0.706 HEAT:  26.13388
 CYCLE:    74 TIME:   0.094 TIME LEFT:  2.00D  GRAD.:     0.543 HEAT:  26.13314
 CYCLE:    75 TIME:   0.105 TIME LEFT:  2.00D  GRAD.:     0.559 HEAT:  26.13219
 CYCLE:    76 TIME:   0.094 TIME LEFT:  2.00D  GRAD.:     0.568 HEAT:  26.13144
 CYCLE:    77 TIME:   0.094 TIME LEFT:  2.00D  GRAD.:     0.499 HEAT:  26.13073
 CYCLE:    78 TIME:   0.113 TIME LEFT:  2.00D  GRAD.:     0.391 HEAT:  26.13028
 CYCLE:    79 TIME:   0.094 TIME LEFT:  2.00D  GRAD.:     0.365 HEAT:  26.12995
 CYCLE:    80 TIME:   0.094 TIME LEFT:  2.00D  GRAD.:     0.386 HEAT:  26.12960
 CYCLE:    81 TIME:   0.094 TIME LEFT:  2.00D  GRAD.:     0.397 HEAT:  26.12927
 CYCLE:    82 TIME:   0.109 TIME LEFT:  2.00D  GRAD.:     0.410 HEAT:  26.12890
 CYCLE:    83 TIME:   0.094 TIME LEFT:  2.00D  GRAD.:     0.413 HEAT:  26.12851
 CYCLE:    84 TIME:   0.094 TIME LEFT:  2.00D  GRAD.:     0.492 HEAT:  26.12801
 CYCLE:    85 TIME:   0.094 TIME LEFT:  2.00D  GRAD.:     0.542 HEAT:  26.12734
 CYCLE:    86 TIME:   0.109 TIME LEFT:  2.00D  GRAD.:     0.654 HEAT:  26.12640
 CYCLE:    87 TIME:   0.094 TIME LEFT:  2.00D  GRAD.:     0.711 HEAT:  26.12538
 CYCLE:    88 TIME:   0.109 TIME LEFT:  2.00D  GRAD.:     0.842 HEAT:  26.12379
 CYCLE:    89 TIME:   0.094 TIME LEFT:  2.00D  GRAD.:     1.040 HEAT:  26.12187
 CYCLE:    90 TIME:   0.094 TIME LEFT:  2.00D  GRAD.:     1.114 HEAT:  26.11953
 CYCLE:    91 TIME:   0.109 TIME LEFT:  2.00D  GRAD.:     1.322 HEAT:  26.11595
 CYCLE:    92 TIME:   0.094 TIME LEFT:  2.00D  GRAD.:     1.027 HEAT:  26.11411
 CYCLE:    93 TIME:   0.109 TIME LEFT:  2.00D  GRAD.:     0.777 HEAT:  26.11156
 CYCLE:    94 TIME:   0.094 TIME LEFT:  2.00D  GRAD.:     0.789 HEAT:  26.11025
 CYCLE:    95 TIME:   0.094 TIME LEFT:  2.00D  GRAD.:     0.703 HEAT:  26.10905
 CYCLE:    96 TIME:   0.094 TIME LEFT:  2.00D  GRAD.:     0.676 HEAT:  26.10794
 CYCLE:    97 TIME:   0.109 TIME LEFT:  2.00D  GRAD.:     0.717 HEAT:  26.10693
 CYCLE:    98 TIME:   0.094 TIME LEFT:  2.00D  GRAD.:     0.985 HEAT:  26.10596
 CYCLE:    99 TIME:   0.094 TIME LEFT:  2.00D  GRAD.:     1.150 HEAT:  26.10476
 CYCLE:   100 TIME:   0.109 TIME LEFT:  2.00D  GRAD.:     1.033 HEAT:  26.10255
 CYCLE:   101 TIME:   0.094 TIME LEFT:  2.00D  GRAD.:     1.807 HEAT:  26.09991
 CYCLE:   102 TIME:   0.109 TIME LEFT:  2.00D  GRAD.:     1.306 HEAT:  26.09728
 CYCLE:   103 TIME:   0.094 TIME LEFT:  2.00D  GRAD.:     1.029 HEAT:  26.09486
 CYCLE:   104 TIME:   0.203 TIME LEFT:  2.00D  GRAD.:     2.537 HEAT:  26.08945
 CYCLE:   105 TIME:   0.094 TIME LEFT:  2.00D  GRAD.:     1.520 HEAT:  26.08453
 CYCLE:   106 TIME:   0.109 TIME LEFT:  2.00D  GRAD.:     1.330 HEAT:  26.08008
 CYCLE:   107 TIME:   0.109 TIME LEFT:  2.00D  GRAD.:     1.434 HEAT:  26.07105
 CYCLE:   108 TIME:   0.094 TIME LEFT:  2.00D  GRAD.:     2.272 HEAT:  26.06550
 CYCLE:   109 TIME:   0.094 TIME LEFT:  2.00D  GRAD.:     2.068 HEAT:  26.06177
 CYCLE:   110 TIME:   0.094 TIME LEFT:  2.00D  GRAD.:     1.885 HEAT:  26.05559
 CYCLE:   111 TIME:   0.109 TIME LEFT:  2.00D  GRAD.:     2.110 HEAT:  26.05009
 CYCLE:   112 TIME:   0.094 TIME LEFT:  2.00D  GRAD.:     1.773 HEAT:  26.04449
 CYCLE:   113 TIME:   0.109 TIME LEFT:  2.00D  GRAD.:     1.888 HEAT:  26.03877
 CYCLE:   114 TIME:   0.094 TIME LEFT:  2.00D  GRAD.:     2.110 HEAT:  26.03195
 CYCLE:   115 TIME:   0.109 TIME LEFT:  2.00D  GRAD.:     1.297 HEAT:  26.02867
 CYCLE:   116 TIME:   0.094 TIME LEFT:  2.00D  GRAD.:     2.097 HEAT:  26.02656
 CYCLE:   117 TIME:   0.094 TIME LEFT:  2.00D  GRAD.:     0.917 HEAT:  26.02426
 CYCLE:   118 TIME:   0.094 TIME LEFT:  2.00D  GRAD.:     0.931 HEAT:  26.02231
 CYCLE:   119 TIME:   0.109 TIME LEFT:  2.00D  GRAD.:     1.782 HEAT:  26.01944
 CYCLE:   120 TIME:   0.094 TIME LEFT:  2.00D  GRAD.:     1.293 HEAT:  26.01659
 CYCLE:   121 TIME:   0.109 TIME LEFT:  2.00D  GRAD.:     1.486 HEAT:  26.01099
 CYCLE:   122 TIME:   0.094 TIME LEFT:  2.00D  GRAD.:     1.221 HEAT:  26.00835
 CYCLE:   123 TIME:   0.109 TIME LEFT:  2.00D  GRAD.:     3.169 HEAT:  26.00514
 CYCLE:   124 TIME:   0.094 TIME LEFT:  2.00D  GRAD.:     1.703 HEAT:  26.00233
 CYCLE:   125 TIME:   0.094 TIME LEFT:  2.00D  GRAD.:     0.911 HEAT:  25.99901
 CYCLE:   126 TIME:   0.094 TIME LEFT:  2.00D  GRAD.:     1.265 HEAT:  25.99710
 CYCLE:   127 TIME:   0.109 TIME LEFT:  2.00D  GRAD.:     1.808 HEAT:  25.99492
 CYCLE:   128 TIME:   0.094 TIME LEFT:  2.00D  GRAD.:     2.359 HEAT:  25.99031
 CYCLE:   129 TIME:   0.109 TIME LEFT:  2.00D  GRAD.:     2.650 HEAT:  25.98650
 CYCLE:   130 TIME:   0.094 TIME LEFT:  2.00D  GRAD.:     2.453 HEAT:  25.97919
 CYCLE:   131 TIME:   0.094 TIME LEFT:  2.00D  GRAD.:     1.260 HEAT:  25.97458
 CYCLE:   132 TIME:   0.094 TIME LEFT:  2.00D  GRAD.:     0.727 HEAT:  25.96871
 CYCLE:   133 TIME:   0.109 TIME LEFT:  2.00D  GRAD.:     2.461 HEAT:  25.96367
 CYCLE:   134 TIME:   0.094 TIME LEFT:  2.00D  GRAD.:     0.917 HEAT:  25.96049
 CYCLE:   135 TIME:   0.094 TIME LEFT:  2.00D  GRAD.:     0.707 HEAT:  25.95802
 CYCLE:   136 TIME:   0.109 TIME LEFT:  2.00D  GRAD.:     2.341 HEAT:  25.95520
 CYCLE:   137 TIME:   0.094 TIME LEFT:  2.00D  GRAD.:     1.421 HEAT:  25.95201
 CYCLE:   138 TIME:   0.094 TIME LEFT:  2.00D  GRAD.:     0.951 HEAT:  25.94863
 CYCLE:   139 TIME:   0.109 TIME LEFT:  2.00D  GRAD.:     2.201 HEAT:  25.94379
 CYCLE:   140 TIME:   0.094 TIME LEFT:  2.00D  GRAD.:     1.143 HEAT:  25.93931
 CYCLE:   141 TIME:   0.125 TIME LEFT:  2.00D  GRAD.:     1.641 HEAT:  25.93510
 CYCLE:   142 TIME:   0.109 TIME LEFT:  2.00D  GRAD.:     0.810 HEAT:  25.93195
 CYCLE:   143 TIME:   0.094 TIME LEFT:  2.00D  GRAD.:     1.526 HEAT:  25.92853
 CYCLE:   144 TIME:   0.109 TIME LEFT:  2.00D  GRAD.:     1.273 HEAT:  25.92595
 CYCLE:   145 TIME:   0.094 TIME LEFT:  2.00D  GRAD.:     1.818 HEAT:  25.92383
 CYCLE:   146 TIME:   0.109 TIME LEFT:  2.00D  GRAD.:     1.455 HEAT:  25.92150
 CYCLE:   147 TIME:   0.094 TIME LEFT:  2.00D  GRAD.:     0.991 HEAT:  25.91892
 CYCLE:   148 TIME:   0.109 TIME LEFT:  2.00D  GRAD.:     1.731 HEAT:  25.91765
 CYCLE:   149 TIME:   0.094 TIME LEFT:  2.00D  GRAD.:     1.074 HEAT:  25.91519
 CYCLE:   150 TIME:   0.094 TIME LEFT:  2.00D  GRAD.:     0.653 HEAT:  25.91390
 CYCLE:   151 TIME:   0.109 TIME LEFT:  2.00D  GRAD.:     0.798 HEAT:  25.91286
 CYCLE:   152 TIME:   0.094 TIME LEFT:  2.00D  GRAD.:     0.431 HEAT:  25.91239
 CYCLE:   153 TIME:   0.109 TIME LEFT:  2.00D  GRAD.:     0.261 HEAT:  25.91218
 CYCLE:   154 TIME:   0.094 TIME LEFT:  2.00D  GRAD.:     0.317 HEAT:  25.91202
 CYCLE:   155 TIME:   0.094 TIME LEFT:  2.00D  GRAD.:     0.375 HEAT:  25.91188
 CYCLE:   156 TIME:   0.094 TIME LEFT:  2.00D  GRAD.:     0.372 HEAT:  25.91162
 CYCLE:   157 TIME:   0.109 TIME LEFT:  2.00D  GRAD.:     0.392 HEAT:  25.91141
 CYCLE:   158 TIME:   0.094 TIME LEFT:  2.00D  GRAD.:     0.371 HEAT:  25.91110
 CYCLE:   159 TIME:   0.094 TIME LEFT:  2.00D  GRAD.:     0.372 HEAT:  25.91084
 CYCLE:   160 TIME:   0.094 TIME LEFT:  2.00D  GRAD.:     0.460 HEAT:  25.91048
 CYCLE:   161 TIME:   0.109 TIME LEFT:  2.00D  GRAD.:     0.435 HEAT:  25.91023
 CYCLE:   162 TIME:   0.094 TIME LEFT:  2.00D  GRAD.:     0.524 HEAT:  25.90994
 CYCLE:   163 TIME:   0.094 TIME LEFT:  2.00D  GRAD.:     0.375 HEAT:  25.90956
 CYCLE:   164 TIME:   0.109 TIME LEFT:  2.00D  GRAD.:     0.777 HEAT:  25.90934
 CYCLE:   165 TIME:   0.094 TIME LEFT:  2.00D  GRAD.:     0.630 HEAT:  25.90852
 CYCLE:   166 TIME:   0.094 TIME LEFT:  2.00D  GRAD.:     0.581 HEAT:  25.90778
 CYCLE:   167 TIME:   0.109 TIME LEFT:  2.00D  GRAD.:     0.767 HEAT:  25.90594
 CYCLE:   168 TIME:   0.094 TIME LEFT:  2.00D  GRAD.:     0.784 HEAT:  25.90500
 CYCLE:   169 TIME:   0.109 TIME LEFT:  2.00D  GRAD.:     0.776 HEAT:  25.90357
 CYCLE:   170 TIME:   0.094 TIME LEFT:  2.00D  GRAD.:     1.376 HEAT:  25.90374
 CYCLE:   171 TIME:   0.094 TIME LEFT:  2.00D  GRAD.:     0.510 HEAT:  25.90201
 CYCLE:   172 TIME:   0.109 TIME LEFT:  2.00D  GRAD.:     0.565 HEAT:  25.90148
 CYCLE:   173 TIME:   0.094 TIME LEFT:  2.00D  GRAD.:     0.363 HEAT:  25.90103
 CYCLE:   174 TIME:   0.109 TIME LEFT:  2.00D  GRAD.:     0.290 HEAT:  25.90079
 CYCLE:   175 TIME:   0.094 TIME LEFT:  2.00D  GRAD.:     0.199 HEAT:  25.90071
 CYCLE:   176 TIME:   0.094 TIME LEFT:  2.00D  GRAD.:     0.164 HEAT:  25.90069
 CYCLE:   177 TIME:   0.109 TIME LEFT:  2.00D  GRAD.:     0.155 HEAT:  25.90073
 CYCLE:   178 TIME:   0.094 TIME LEFT:  2.00D  GRAD.:     0.186 HEAT:  25.90067
 CYCLE:   179 TIME:   0.109 TIME LEFT:  2.00D  GRAD.:     0.241 HEAT:  25.90060
 CYCLE:   180 TIME:   0.094 TIME LEFT:  2.00D  GRAD.:     0.352 HEAT:  25.90067
 CYCLE:   181 TIME:   0.094 TIME LEFT:  2.00D  GRAD.:     0.215 HEAT:  25.90050
 CYCLE:   182 TIME:   0.109 TIME LEFT:  2.00D  GRAD.:     0.431 HEAT:  25.90103
 CYCLE:   183 TIME:   0.094 TIME LEFT:  2.00D  GRAD.:     0.190 HEAT:  25.90039
 CYCLE:   184 TIME:   0.094 TIME LEFT:  2.00D  GRAD.:     0.199 HEAT:  25.90031
 CYCLE:   185 TIME:   0.109 TIME LEFT:  2.00D  GRAD.:     1.030 HEAT:  25.90474
 CYCLE:   186 TIME:   0.109 TIME LEFT:  2.00D  GRAD.:     0.320 HEAT:  25.90036
 CYCLE:   187 TIME:   0.094 TIME LEFT:  2.00D  GRAD.:     0.264 HEAT:  25.89990
 CYCLE:   188 TIME:   0.094 TIME LEFT:  2.00D  GRAD.:     0.274 HEAT:  25.89971
 CYCLE:   189 TIME:   0.109 TIME LEFT:  2.00D  GRAD.:     0.593 HEAT:  25.89839
 CYCLE:   190 TIME:   0.094 TIME LEFT:  2.00D  GRAD.:     1.119 HEAT:  25.89623
 CYCLE:   191 TIME:   0.109 TIME LEFT:  2.00D  GRAD.:     0.942 HEAT:  25.89392
 CYCLE:   192 TIME:   0.094 TIME LEFT:  2.00D  GRAD.:     1.424 HEAT:  25.88989
 CYCLE:   193 TIME:   0.109 TIME LEFT:  2.00D  GRAD.:     1.999 HEAT:  25.89259
 CYCLE:   194 TIME:   0.094 TIME LEFT:  2.00D  GRAD.:     0.705 HEAT:  25.88811
 CYCLE:   195 TIME:   0.094 TIME LEFT:  2.00D  GRAD.:     0.915 HEAT:  25.88740
 CYCLE:   196 TIME:   0.109 TIME LEFT:  2.00D  GRAD.:     1.233 HEAT:  25.88664
 CYCLE:   197 TIME:   0.094 TIME LEFT:  2.00D  GRAD.:     1.064 HEAT:  25.88588
 CYCLE:   198 TIME:   0.109 TIME LEFT:  2.00D  GRAD.:     1.037 HEAT:  25.88490
 CYCLE:   199 TIME:   0.094 TIME LEFT:  2.00D  GRAD.:     0.333 HEAT:  25.88434
 CYCLE:   200 TIME:   0.094 TIME LEFT:  2.00D  GRAD.:     0.313 HEAT:  25.88410
 CYCLE:   201 TIME:   0.203 TIME LEFT:  2.00D  GRAD.:     1.072 HEAT:  25.88415
 CYCLE:   202 TIME:   0.109 TIME LEFT:  2.00D  GRAD.:     1.404 HEAT:  25.88522
 CYCLE:   203 TIME:   0.094 TIME LEFT:  2.00D  GRAD.:     0.272 HEAT:  25.88342
 CYCLE:   204 TIME:   0.094 TIME LEFT:  2.00D  GRAD.:     0.288 HEAT:  25.88331
 CYCLE:   205 TIME:   0.109 TIME LEFT:  2.00D  GRAD.:     0.516 HEAT:  25.88335
 CYCLE:   206 TIME:   0.094 TIME LEFT:  2.00D  GRAD.:     0.310 HEAT:  25.88319
 CYCLE:   207 TIME:   0.094 TIME LEFT:  2.00D  GRAD.:     0.656 HEAT:  25.88367
 CYCLE:   208 TIME:   0.109 TIME LEFT:  2.00D  GRAD.:     0.050 HEAT:  25.88309
 CYCLE:   209 TIME:   0.094 TIME LEFT:  2.00D  GRAD.:     0.516 HEAT:  25.88324
 CYCLE:   210 TIME:   0.094 TIME LEFT:  2.00D  GRAD.:     0.147 HEAT:  25.88305
 CYCLE:   211 TIME:   0.109 TIME LEFT:  2.00D  GRAD.:     0.176 HEAT:  25.88313
 CYCLE:   212 TIME:   0.094 TIME LEFT:  2.00D  GRAD.:     0.071 HEAT:  25.88308
 CYCLE:   213 TIME:   0.094 TIME LEFT:  2.00D  GRAD.:     0.032 HEAT:  25.88307

     GRADIENT =  0.03246 IS LESS THAN CUTOFF =  0.05000



 -------------------------------------------------------------------------------
 PRECISE LARGE CHARGE=0 SINGLET  PM7
 2,2'-dimethyldifenyl



     GEOMETRY OPTIMISED USING EIGENVECTOR FOLLOWING (EF).     
     SCF FIELD WAS ACHIEVED                                   


                              PM7 CALCULATION
                                                       MOPAC v22.1.0 Windows
                                                       Mon Jan 22 16:02:52 2024




          FINAL HEAT OF FORMATION =         25.88307 KCAL/MOL =     108.29476 KJ/MOL


          COSMO AREA              =        222.55 SQUARE ANGSTROMS
          COSMO VOLUME            =        245.66 CUBIC ANGSTROMS

          GRADIENT NORM           =          0.03246          =       0.00613 PER ATOM
          IONIZATION POTENTIAL    =          9.339738 EV
          HOMO LUMO ENERGIES (EV) =         -9.340  0.266
          NO. OF FILLED LEVELS    =         35
          MOLECULAR WEIGHT        =        182.2646         POINT GROUP:  C2  

          MOLECULAR DIMENSIONS (Angstroms)

            Atom       Atom       Distance
            H    20    H     9     9.21762
            H    19    H    24     5.55019
            H    27    H     8     5.54825


          SCF CALCULATIONS        =        221
 
          WALL-CLOCK TIME         =     22.145 SECONDS
          COMPUTATION TIME        =          2 MINUTES AND 1.984 SECONDS




   ATOM   CHEMICAL          X               Y               Z
  NUMBER   SYMBOL      (ANGSTROMS)     (ANGSTROMS)     (ANGSTROMS)
 
     1       C         -2.43927311  *   0.88599667  *  -0.04952804  *
     2       C         -2.33804783  *   2.25274028  *   0.24387976  *
     3       C         -3.47731033  *   2.98424709  *   0.58225714  *
     4       C         -4.72023287  *   2.35831911  *   0.63358732  *
     5       C         -4.82419413  *   0.99900672  *   0.34577799  *
     6       C         -3.68952759  *   0.26661562  *   0.00482508  *
     7       H         -3.38848211  *   4.04646743  *   0.80479326  *
     8       H         -5.60651861  *   2.93028008  *   0.89728405  *
     9       H         -5.79401015  *   0.50771289  *   0.38593908  *
    10       H         -3.77861765  *  -0.79353856  *  -0.22127998  *
    11       C         -1.03637646  *   2.93383260  *   0.19889188  *
    12       C         -0.60333634  *   3.49531498  *  -1.00304329  *
    13       C          0.62783493  *   4.14281936  *  -1.06856853  *
    14       C          1.42697120  *   4.22930530  *   0.06951141  *
    15       C          0.99638399  *   3.67256247  *   1.27151723  *
    16       C         -0.23675712  *   3.02190148  *   1.34661374  *
    17       C         -1.22682042  *   0.10364159  *  -0.42264810  *
    18       H         -1.23375735  *   3.42477257  *  -1.88808740  *
    19       H          0.96311163  *   4.57969823  *  -2.00606548  *
    20       H          2.38948602  *   4.73399130  *   0.02052722  *
    21       H          1.62427868  *   3.74626166  *   2.15656319  *
    22       C         -0.70069072  *   2.43295186  *   2.63472329  *
    23       H         -1.59571395  *   2.95643376  *   3.00682510  *
    24       H          0.05814957  *   2.47935067  *   3.42547131  *
    25       H         -0.98539687  *   1.37598201  *   2.51436269  *
    26       H         -0.82274958  *   0.44266418  *  -1.38979119  *
    27       H         -1.42059204  *  -0.97267663  *  -0.50789236  *
    28       H         -0.41997705  *   0.23448426  *   0.31534978  *

                             CARTESIAN COORDINATES

   1    C       -2.439273111     0.885996668    -0.049528045
   2    C       -2.338047832     2.252740277     0.243879757
   3    C       -3.477310335     2.984247090     0.582257136
   4    C       -4.720232868     2.358319107     0.633587325
   5    C       -4.824194126     0.999006717     0.345777993
   6    C       -3.689527586     0.266615623     0.004825082
   7    H       -3.388482114     4.046467433     0.804793262
   8    H       -5.606518608     2.930280076     0.897284048
   9    H       -5.794010150     0.507712892     0.385939081
  10    H       -3.778617651    -0.793538564    -0.221279981
  11    C       -1.036376460     2.933832596     0.198891884
  12    C       -0.603336340     3.495314984    -1.003043292
  13    C        0.627834929     4.142819362    -1.068568526
  14    C        1.426971199     4.229305303     0.069511413
  15    C        0.996383988     3.672562474     1.271517225
  16    C       -0.236757116     3.021901475     1.346613738
  17    C       -1.226820425     0.103641589    -0.422648100
  18    H       -1.233757355     3.424772571    -1.888087399
  19    H        0.963111631     4.579698228    -2.006065480
  20    H        2.389486019     4.733991299     0.020527224
  21    H        1.624278679     3.746261661     2.156563192
  22    C       -0.700690724     2.432951864     2.634723291
  23    H       -1.595713946     2.956433759     3.006825102
  24    H        0.058149574     2.479350669     3.425471310
  25    H       -0.985396869     1.375982011     2.514362695
  26    H       -0.822749584     0.442664179    -1.389791187
  27    H       -1.420592040    -0.972676625    -0.507892359
  28    H       -0.419977047     0.234484263     0.315349782


           Empirical Formula: C14 H14  =    28 atoms



      MOLECULAR POINT GROUP   :   C2  


                  EIGENVALUES  
 -30.99430 -30.24461 -27.52378 -27.10574 -26.65153 -24.80415 -23.76180 -23.43170
 -21.49773 -20.64790 -20.31414 -19.27209 -17.56530 -16.54792 -15.91459 -15.88038
 -15.21236 -14.73386 -14.57260 -14.28018 -14.06259 -13.93102 -13.84479 -13.23531
 -13.19410 -12.81576 -12.72805 -12.29144 -11.90351 -11.88883 -11.41116  -9.66780
  -9.65157  -9.37002  -9.33974   0.26607   0.29462   0.35261   0.35719   2.61222
   2.62412   3.75486   4.11465   4.22786   4.58172   4.94697   4.95586   5.04192
   5.09310   5.12936   5.18887   5.34416   5.35878   5.38351   5.64937   5.71554
   5.80696   5.82207   5.97430   5.97492   5.99740   6.08877   6.25807   6.26399
   6.30579   6.30669   6.38199   6.41727   6.84977   6.94239


              NET ATOMIC CHARGES AND DIPOLE CONTRIBUTIONS

  ATOM NO.   TYPE          CHARGE      No. of ELECS.   s-Pop       p-Pop       
    1          C           0.039733        3.9603     1.06778     2.89248
    2          C          -0.047185        4.0472     1.06347     2.98372
    3          C          -0.141662        4.1417     1.08419     3.05747
    4          C          -0.164302        4.1643     1.08038     3.08393
    5          C          -0.137998        4.1380     1.08279     3.05521
    6          C          -0.181352        4.1814     1.08268     3.09867
    7          H           0.155699        0.8443     0.84430
    8          H           0.150128        0.8499     0.84987
    9          H           0.146215        0.8538     0.85379
   10          H           0.151622        0.8484     0.84838
   11          C          -0.047264        4.0473     1.06347     2.98380
   12          C          -0.141547        4.1415     1.08419     3.05735
   13          C          -0.164320        4.1643     1.08038     3.08394
   14          C          -0.137986        4.1380     1.08279     3.05519
   15          C          -0.181352        4.1814     1.08268     3.09867
   16          C           0.039689        3.9603     1.06779     2.89252
   17          C          -0.455047        4.4550     1.04938     3.40566
   18          H           0.155686        0.8443     0.84431
   19          H           0.150126        0.8499     0.84987
   20          H           0.146216        0.8538     0.85378
   21          H           0.151625        0.8484     0.84837
   22          C          -0.455002        4.4550     1.04938     3.40562
   23          H           0.165556        0.8344     0.83444
   24          H           0.154399        0.8456     0.84560
   25          H           0.164177        0.8358     0.83582
   26          H           0.165519        0.8345     0.83448
   27          H           0.154416        0.8456     0.84558
   28          H           0.164211        0.8358     0.83579
 DIPOLE           X         Y         Z       TOTAL
 POINT-CHG.     0.264    -0.485     0.321     0.639
 HYBRID         0.032    -0.060     0.039     0.079
 SUM            0.297    -0.545     0.360     0.718


          ATOMIC ORBITAL ELECTRON POPULATIONS

     Atom    s        px        py        pz   
    1  C   1.06778   0.96780   0.96450   0.96018
    2  C   1.06347   0.97698   0.98508   1.02165
    3  C   1.08419   0.98098   1.07665   0.99984
    4  C   1.08038   1.04645   1.01347   1.02401
    5  C   1.08279   1.05677   1.00568   0.99276
    6  C   1.08268   0.98709   1.07845   1.03313
    7  H   0.84430
    8  H   0.84987
    9  H   0.85379
   10  H   0.84838
   11  C   1.06347   0.98253   1.01136   0.98990
   12  C   1.08419   1.01886   0.99321   1.04529
   13  C   1.08038   1.00107   1.02632   1.05655
   14  C   1.08279   1.05776   1.01043   0.98700
   15  C   1.08268   1.02511   1.02066   1.05290
   16  C   1.06779   0.96857   0.96263   0.96132
   17  C   1.04938   1.08894   1.13835   1.17838
   18  H   0.84431
   19  H   0.84987
   20  H   0.85378
   21  H   0.84837
   22  C   1.04938   1.17185   1.16476   1.06901
   23  H   0.83444
   24  H   0.84560
   25  H   0.83582
   26  H   0.83448
   27  H   0.84558
   28  H   0.83579

 **********************
 *                    *
 * JOB ENDED NORMALLY *
 *                    *
 **********************



 TOTAL JOB TIME:            22.14 SECONDS

 == MOPAC DONE ==
