 *******************************************************************************
 **                                                                           **
 **                              MOPAC v22.1.1                                **
 **                                                                           **
 *******************************************************************************
 **          Digital Object Identifier (DOI): 10.5281/zenodo.6511958          **
 **    Visit the DOI location for information on how to cite this program.    **
 *******************************************************************************

                              PM7 CALCULATION RESULTS

 *******************************************************************************
 *  CALCULATION DONE:                                Mon Feb 19 21:08:55 2024  *
 *  PM7        - The PM7 Hamiltonian to be used
 *  GEO-OK     - OVERRIDE INTERATOMIC DISTANCE AND OTHER SAFETY CHECKS
 *  GEO_DAT    - DATA SET GEOMETRY IS IN FILE "H2_F2-singlepoint.arc"
 *  GEO_REF    - REFERENCE GEOMETRY IS IN FILE "HF_2molecules.arc"
 *               (NO BIAS TOWARDS THE REFERENCE GEOMETRY WILL BE APPLIED)
 *  PRECISE    - TIGHTER CRITERIA TO BE USED
 *  SADDLE     - TRANSITION STATE TO BE OPTIMIZED
 *  T=         - A TIME OF 172800.0 SECONDS REQUESTED
 *  DUMP=N     - RESTART FILE WRITTEN EVERY 7200.0 SECONDS REQUESTED
 *******************************************************************************
GEO_DAT="H2_F2-singlepoint.arc" GEO_REF="HF_2molecules.arc" SADDLE  GEO-OK PM7 PRECISE
 Tranzitny stav H2 + F2

   ATOM   CHEMICAL          X               Y               Z
  NUMBER   SYMBOL      (ANGSTROMS)     (ANGSTROMS)     (ANGSTROMS)
 
     1       H         -5.56273000  *   2.12227000  *   0.00000000  *
     2       H         -5.52131000  *   1.00918000  *   0.00000000  *
     3       F         -3.41609000  *   2.92333000  *   0.00000000  *
     4       F         -3.31677000  *   0.83771000  *   0.00000000  *
 

           The two systems have different chain letters, so all chain letters changed to "X"

                        After docking

                     Atoms that move a lot

                     Atom Label             GEO_REF Coordinates       Movement    Integral

            (          1          X    )  -5.206   2.845   0.000        0.63         0.63
            (          2          X    )  -5.086   0.593   0.000        0.58         1.21
            (          3          X    )  -3.416   2.923   0.000        0.23         1.45
            (          4          X    )  -3.317   0.838   0.000        0.18         1.63

     Residues that move a lot and their (Movement in Angstroms, per atom)


   Difference between GEO_DAT and GEO_REF: 1.629 = total,  0.4074 = Average,  0.4545 = RMS, in Angstroms

 General Reference for PM7:
 "Optimization of Parameters for Semiempirical Methods VI: More Modifications to the 
 NDDO Approximations and Re-optimization of Parameters", J. J. P. Stewart, J. Mol. Mod., 1:32, 19 (2013)
 https://link.springer.com/article/10.1007/s00894-012-1667-x

           Empirical Formula: H2 F2  =     4 atoms



      MOLECULAR POINT GROUP   :   Cs  


      RHF CALCULATION, NO. OF DOUBLY OCCUPIED LEVELS = 8



  CARTESIAN GEOMETRY OF FIRST SYSTEM


   1    H         -5.20641       2.84481       0.00000
   2    H         -5.08580       0.59347       0.00000
   3    F         -3.41609       2.92333       0.00000
   4    F         -3.31677       0.83771       0.00000


  CARTESIAN GEOMETRY OF SECOND SYSTEM


   1    H         -5.35418       2.22726       0.00000
   2    H         -5.34130       1.11347       0.00000
   3    F         -3.18771       2.97303      -0.00000
   4    F         -3.14188       0.88555      -0.00000


   "DISTANCE":     0.909061


  REACTION COORDINATE VECTOR


   1    H          0.14777       0.61755       0.00000
   2    H          0.25550      -0.52000      -0.00000
   3    F         -0.22838      -0.04970       0.00000
   4    F         -0.17489      -0.04784       0.00000
 *+*+*+*+*+*+*+*+*+*+*+*+*+*+*+*+*+*+*+*+*+*+*+*+*+*+*+*+*+*+*+*+*+*+*+*+*+*+*+*+
            BAR SHORTENED BY       0.000 PERCENT
 GRADIENT CRITERION IN FLEPO =     0.200


          FOR POINT    1 SECOND STRUCTURE
 DISTANCE A - B      0.909061
 HEAT                0.607356
 GRADIENT NORM     260.136931
 DIRECTION COSINE   -0.000000
 GEO-OK PM7 PRECISE
 Tranzitny stav H2 + F2

  H(          1          X    )   0.00000000 +0    0.0000000 +0    0.0000000 +0
  H(          2          X    )   1.24410287 +1    0.0000000 +0    0.0000000 +0     1     0     0
  F(          3          X    )   1.44075011 +1  109.3198192 +1    0.0000000 +0     1     2     0
  F(          4          X    )   1.26504522 +1  103.8989388 +1   -0.0242436 +1     2     1     3
 
 TIME=     0.06
  REACTANTS AND PRODUCTS SWAPPED AROUND
 *+*+*+*+*+*+*+*+*+*+*+*+*+*+*+*+*+*+*+*+*+*+*+*+*+*+*+*+*+*+*+*+*+*+*+*+*+*+*+*+
            BAR SHORTENED BY       1.000 PERCENT
 GRADIENT CRITERION IN FLEPO =     2.000


          FOR POINT    2 FIRST  STRUCTURE
 DISTANCE A - B      0.899970
 HEAT              -34.308975
 GRADIENT NORM      59.302256
 DIRECTION COSINE    0.783678
 GEO-OK PM7 PRECISE
 Tranzitny stav H2 + F2

  H(          1          X    )   0.00000000 +0    0.0000000 +0    0.0000000 +0
  H(          2          X    )   0.77301439 +1    0.0000000 +0    0.0000000 +0     1     0     0
  F(          3          X    )   2.07433079 +1  101.6902918 +1    0.0000000 +0     1     2     0
  F(          4          X    )   1.43523799 +1   76.9681405 +1   -1.7100996 +1     3     1     2
 
 *+*+*+*+*+*+*+*+*+*+*+*+*+*+*+*+*+*+*+*+*+*+*+*+*+*+*+*+*+*+*+*+*+*+*+*+*+*+*+*+
            BAR SHORTENED BY       1.000 PERCENT
 GRADIENT CRITERION IN FLEPO =     2.000


          FOR POINT    3 FIRST  STRUCTURE
 DISTANCE A - B      0.890971
 HEAT              -33.794140
 GRADIENT NORM      59.522811
 DIRECTION COSINE    0.998387
 GEO-OK PM7 PRECISE
 Tranzitny stav H2 + F2

  H(          1          X    )   0.00000000 +0    0.0000000 +0    0.0000000 +0
  H(          2          X    )   0.77357809 +1    0.0000000 +0    0.0000000 +0     1     0     0
  F(          3          X    )   2.06335028 +1  101.7145703 +1    0.0000000 +0     1     2     0
  F(          4          X    )   1.43385069 +1   76.9117215 +1   -0.7853363 +1     3     1     2
 
 *+*+*+*+*+*+*+*+*+*+*+*+*+*+*+*+*+*+*+*+*+*+*+*+*+*+*+*+*+*+*+*+*+*+*+*+*+*+*+*+
            BAR SHORTENED BY       1.000 PERCENT
 GRADIENT CRITERION IN FLEPO =     2.000


          FOR POINT    4 FIRST  STRUCTURE
 DISTANCE A - B      0.882061
 HEAT              -33.260243
 GRADIENT NORM      61.788046
 DIRECTION COSINE    0.999927
 GEO-OK PM7 PRECISE
 Tranzitny stav H2 + F2

  H(          1          X    )   0.00000000 +0    0.0000000 +0    0.0000000 +0
  H(          2          X    )   0.77419198 +1    0.0000000 +0    0.0000000 +0     1     0     0
  F(          3          X    )   2.05296635 +1  101.7984085 +1    0.0000000 +0     1     2     0
  F(          4          X    )   1.43494483 +1   76.8558730 +1    0.1382113 +1     3     1     2
 
 TIME=     0.05
  REACTANTS AND PRODUCTS SWAPPED AROUND
 *+*+*+*+*+*+*+*+*+*+*+*+*+*+*+*+*+*+*+*+*+*+*+*+*+*+*+*+*+*+*+*+*+*+*+*+*+*+*+*+
            BAR SHORTENED BY       0.000 PERCENT
 GRADIENT CRITERION IN FLEPO =     2.000


          FOR POINT    5 SECOND STRUCTURE
 DISTANCE A - B      0.882061
 HEAT              -19.438426
 GRADIENT NORM     260.338661
 DIRECTION COSINE    0.963536
 GEO-OK PM7 PRECISE
 Tranzitny stav H2 + F2

  H(          1          X    )   0.00000000 +0    0.0000000 +0    0.0000000 +0
  H(          2          X    )   1.09337308 +1    0.0000000 +0    0.0000000 +0     1     0     0
  F(          3          X    )   1.26908250 +1  108.7467474 +1    0.0000000 +0     1     2     0
  F(          4          X    )   1.19835194 +1  104.4608301 +1   -0.0063596 +1     2     1     3
 
 TIME=     0.02
  REACTANTS AND PRODUCTS SWAPPED AROUND
 *+*+*+*+*+*+*+*+*+*+*+*+*+*+*+*+*+*+*+*+*+*+*+*+*+*+*+*+*+*+*+*+*+*+*+*+*+*+*+*+
            BAR SHORTENED BY       1.000 PERCENT
 GRADIENT CRITERION IN FLEPO =     2.000


          FOR POINT    6 FIRST  STRUCTURE
 DISTANCE A - B      0.873240
 HEAT              -32.910248
 GRADIENT NORM      55.369584
 DIRECTION COSINE    0.998901
 GEO-OK PM7 PRECISE
 Tranzitny stav H2 + F2

  H(          1          X    )   0.00000000 +0    0.0000000 +0    0.0000000 +0
  H(          2          X    )   0.76910333 +1    0.0000000 +0    0.0000000 +0     1     0     0
  F(          3          X    )   2.01687626 +1  101.7695176 +1    0.0000000 +0     1     2     0
  F(          4          X    )   1.42858200 +1   78.6783759 +1   -0.1251049 +1     3     1     2
 
 *+*+*+*+*+*+*+*+*+*+*+*+*+*+*+*+*+*+*+*+*+*+*+*+*+*+*+*+*+*+*+*+*+*+*+*+*+*+*+*+
            BAR SHORTENED BY       1.000 PERCENT
 GRADIENT CRITERION IN FLEPO =     2.000


          FOR POINT    7 FIRST  STRUCTURE
 DISTANCE A - B      0.864508
 HEAT              -32.423430
 GRADIENT NORM      57.199761
 DIRECTION COSINE    0.999878
 GEO-OK PM7 PRECISE
 Tranzitny stav H2 + F2

  H(          1          X    )   0.00000000 +0    0.0000000 +0    0.0000000 +0
  H(          2          X    )   0.76973003 +1    0.0000000 +0    0.0000000 +0     1     0     0
  F(          3          X    )   2.01077517 +1  101.7366678 +1    0.0000000 +0     1     2     0
  F(          4          X    )   1.42932377 +1   78.4546335 +1    0.0426669 +1     3     1     2
 
 *+*+*+*+*+*+*+*+*+*+*+*+*+*+*+*+*+*+*+*+*+*+*+*+*+*+*+*+*+*+*+*+*+*+*+*+*+*+*+*+
            BAR SHORTENED BY       1.000 PERCENT
 GRADIENT CRITERION IN FLEPO =     2.000


          FOR POINT    8 FIRST  STRUCTURE
 DISTANCE A - B      0.855863
 HEAT              -31.925115
 GRADIENT NORM      58.655159
 DIRECTION COSINE    0.999993
 GEO-OK PM7 PRECISE
 Tranzitny stav H2 + F2

  H(          1          X    )   0.00000000 +0    0.0000000 +0    0.0000000 +0
  H(          2          X    )   0.76991463 +1    0.0000000 +0    0.0000000 +0     1     0     0
  F(          3          X    )   2.00216897 +1  101.7378056 +1    0.0000000 +0     1     2     0
  F(          4          X    )   1.42971984 +1   78.3884551 +1    0.1111719 +1     3     1     2
 
 TIME=     0.04
  REACTANTS AND PRODUCTS SWAPPED AROUND
 *+*+*+*+*+*+*+*+*+*+*+*+*+*+*+*+*+*+*+*+*+*+*+*+*+*+*+*+*+*+*+*+*+*+*+*+*+*+*+*+
            BAR SHORTENED BY       0.000 PERCENT
 GRADIENT CRITERION IN FLEPO =     2.000


          FOR POINT    9 SECOND STRUCTURE
 DISTANCE A - B      0.855863
 HEAT              -19.643996
 GRADIENT NORM     262.136233
 DIRECTION COSINE    0.998337
 GEO-OK PM7 PRECISE
 Tranzitny stav H2 + F2

  H(          1          X    )   0.00000000 +0    0.0000000 +0    0.0000000 +0
  H(          2          X    )   1.09014987 +1    0.0000000 +0    0.0000000 +0     1     0     0
  F(          3          X    )   1.24248357 +1  108.5356932 +1    0.0000000 +0     1     2     0
  F(          4          X    )   1.22108425 +1  104.8047998 +1   -0.0108550 +1     2     1     3
 
 TIME=     0.02
  REACTANTS AND PRODUCTS SWAPPED AROUND
 *+*+*+*+*+*+*+*+*+*+*+*+*+*+*+*+*+*+*+*+*+*+*+*+*+*+*+*+*+*+*+*+*+*+*+*+*+*+*+*+
            BAR SHORTENED BY       1.000 PERCENT
 GRADIENT CRITERION IN FLEPO =     2.000


          FOR POINT   10 FIRST  STRUCTURE
 DISTANCE A - B      0.847304
 HEAT              -31.444986
 GRADIENT NORM      60.537874
 DIRECTION COSINE    0.998795
 GEO-OK PM7 PRECISE
 Tranzitny stav H2 + F2

  H(          1          X    )   0.00000000 +0    0.0000000 +0    0.0000000 +0
  H(          2          X    )   0.77072052 +1    0.0000000 +0    0.0000000 +0     1     0     0
  F(          3          X    )   1.98416162 +1  101.5971705 +1    0.0000000 +0     1     2     0
  F(          4          X    )   1.43058384 +1   79.1577994 +1    0.3439025 +1     3     1     2
 
 *+*+*+*+*+*+*+*+*+*+*+*+*+*+*+*+*+*+*+*+*+*+*+*+*+*+*+*+*+*+*+*+*+*+*+*+*+*+*+*+
            BAR SHORTENED BY       1.000 PERCENT
 GRADIENT CRITERION IN FLEPO =     2.000


          FOR POINT   11 FIRST  STRUCTURE
 DISTANCE A - B      0.838831
 HEAT              -30.931719
 GRADIENT NORM      61.571094
 DIRECTION COSINE    0.999771
 GEO-OK PM7 PRECISE
 Tranzitny stav H2 + F2

  H(          1          X    )   0.00000000 +0    0.0000000 +0    0.0000000 +0
  H(          2          X    )   0.77038656 +1    0.0000000 +0    0.0000000 +0     1     0     0
  F(          3          X    )   1.97506793 +1  101.5792243 +1    0.0000000 +0     1     2     0
  F(          4          X    )   1.43061165 +1   79.1371745 +1    0.2701312 +1     3     1     2
 
 *+*+*+*+*+*+*+*+*+*+*+*+*+*+*+*+*+*+*+*+*+*+*+*+*+*+*+*+*+*+*+*+*+*+*+*+*+*+*+*+
            BAR SHORTENED BY       1.000 PERCENT
 GRADIENT CRITERION IN FLEPO =     2.000


          FOR POINT   12 FIRST  STRUCTURE
 DISTANCE A - B      0.830443
 HEAT              -30.408758
 GRADIENT NORM      63.258269
 DIRECTION COSINE    0.999988
 GEO-OK PM7 PRECISE
 Tranzitny stav H2 + F2

  H(          1          X    )   0.00000000 +0    0.0000000 +0    0.0000000 +0
  H(          2          X    )   0.77081144 +1    0.0000000 +0    0.0000000 +0     1     0     0
  F(          3          X    )   1.96637740 +1  101.5629115 +1    0.0000000 +0     1     2     0
  F(          4          X    )   1.43120471 +1   79.1124946 +1    0.2875728 +1     3     1     2
 
 TIME=     0.02
  REACTANTS AND PRODUCTS SWAPPED AROUND
 *+*+*+*+*+*+*+*+*+*+*+*+*+*+*+*+*+*+*+*+*+*+*+*+*+*+*+*+*+*+*+*+*+*+*+*+*+*+*+*+
            BAR SHORTENED BY       0.000 PERCENT
 GRADIENT CRITERION IN FLEPO =     2.000


          FOR POINT   13 SECOND STRUCTURE
 DISTANCE A - B      0.830443
 HEAT              -19.674341
 GRADIENT NORM     262.189091
 DIRECTION COSINE    0.999395
 GEO-OK PM7 PRECISE
 Tranzitny stav H2 + F2

  H(          1          X    )   0.00000000 +0    0.0000000 +0    0.0000000 +0
  H(          2          X    )   1.08830132 +1    0.0000000 +0    0.0000000 +0     1     0     0
  F(          3          X    )   1.24277823 +1  108.0025609 +1    0.0000000 +0     1     2     0
  F(          4          X    )   1.21911179 +1  105.3603300 +1   -0.3362593 +1     2     1     3
 
 TIME=     0.02
  REACTANTS AND PRODUCTS SWAPPED AROUND
 *+*+*+*+*+*+*+*+*+*+*+*+*+*+*+*+*+*+*+*+*+*+*+*+*+*+*+*+*+*+*+*+*+*+*+*+*+*+*+*+
            BAR SHORTENED BY       1.000 PERCENT
 GRADIENT CRITERION IN FLEPO =     2.000


          FOR POINT   14 FIRST  STRUCTURE
 DISTANCE A - B      0.822138
 HEAT              -29.879105
 GRADIENT NORM      64.830827
 DIRECTION COSINE    0.999449
 GEO-OK PM7 PRECISE
 Tranzitny stav H2 + F2

  H(          1          X    )   0.00000000 +0    0.0000000 +0    0.0000000 +0
  H(          2          X    )   0.77109341 +1    0.0000000 +0    0.0000000 +0     1     0     0
  F(          3          X    )   1.95764288 +1  101.5101902 +1    0.0000000 +0     1     2     0
  F(          4          X    )   1.43169346 +1   79.1138658 +1    0.4913495 +1     3     1     2
 
 *+*+*+*+*+*+*+*+*+*+*+*+*+*+*+*+*+*+*+*+*+*+*+*+*+*+*+*+*+*+*+*+*+*+*+*+*+*+*+*+
            BAR SHORTENED BY       1.000 PERCENT
 GRADIENT CRITERION IN FLEPO =     2.000


          FOR POINT   15 FIRST  STRUCTURE
 DISTANCE A - B      0.813917
 HEAT              -29.340086
 GRADIENT NORM      66.549021
 DIRECTION COSINE    0.999988
 GEO-OK PM7 PRECISE
 Tranzitny stav H2 + F2

  H(          1          X    )   0.00000000 +0    0.0000000 +0    0.0000000 +0
  H(          2          X    )   0.77154082 +1    0.0000000 +0    0.0000000 +0     1     0     0
  F(          3          X    )   1.94911227 +1  101.4661284 +1    0.0000000 +0     1     2     0
  F(          4          X    )   1.43230121 +1   79.1053321 +1    0.5384230 +1     3     1     2
 
 *+*+*+*+*+*+*+*+*+*+*+*+*+*+*+*+*+*+*+*+*+*+*+*+*+*+*+*+*+*+*+*+*+*+*+*+*+*+*+*+
            BAR SHORTENED BY       1.000 PERCENT
 GRADIENT CRITERION IN FLEPO =     2.000


          FOR POINT   16 FIRST  STRUCTURE
 DISTANCE A - B      0.805778
 HEAT              -28.792218
 GRADIENT NORM      68.285994
 DIRECTION COSINE    0.999989
 GEO-OK PM7 PRECISE
 Tranzitny stav H2 + F2

  H(          1          X    )   0.00000000 +0    0.0000000 +0    0.0000000 +0
  H(          2          X    )   0.77199924 +1    0.0000000 +0    0.0000000 +0     1     0     0
  F(          3          X    )   1.94070081 +1  101.4313426 +1    0.0000000 +0     1     2     0
  F(          4          X    )   1.43291840 +1   79.0889182 +1    0.5586281 +1     3     1     2
 
 TIME=     0.02
  REACTANTS AND PRODUCTS SWAPPED AROUND
 *+*+*+*+*+*+*+*+*+*+*+*+*+*+*+*+*+*+*+*+*+*+*+*+*+*+*+*+*+*+*+*+*+*+*+*+*+*+*+*+
            BAR SHORTENED BY       0.000 PERCENT
 GRADIENT CRITERION IN FLEPO =     2.000


          FOR POINT   17 SECOND STRUCTURE
 DISTANCE A - B      0.805778
 HEAT              -19.716689
 GRADIENT NORM     262.363357
 DIRECTION COSINE    0.999559
 GEO-OK PM7 PRECISE
 Tranzitny stav H2 + F2

  H(          1          X    )   0.00000000 +0    0.0000000 +0    0.0000000 +0
  H(          2          X    )   1.08112369 +1    0.0000000 +0    0.0000000 +0     1     0     0
  F(          3          X    )   1.23482320 +1  108.0285724 +1    0.0000000 +0     1     2     0
  F(          4          X    )   1.22172714 +1  105.4896563 +1   -0.4687484 +1     2     1     3
 
 TIME=     0.02
  REACTANTS AND PRODUCTS SWAPPED AROUND
 *+*+*+*+*+*+*+*+*+*+*+*+*+*+*+*+*+*+*+*+*+*+*+*+*+*+*+*+*+*+*+*+*+*+*+*+*+*+*+*+
            BAR SHORTENED BY       1.000 PERCENT
 GRADIENT CRITERION IN FLEPO =     2.000


          FOR POINT   18 FIRST  STRUCTURE
 DISTANCE A - B      0.797720
 HEAT              -28.239346
 GRADIENT NORM      69.682503
 DIRECTION COSINE    0.999633
 GEO-OK PM7 PRECISE
 Tranzitny stav H2 + F2

  H(          1          X    )   0.00000000 +0    0.0000000 +0    0.0000000 +0
  H(          2          X    )   0.77205387 +1    0.0000000 +0    0.0000000 +0     1     0     0
  F(          3          X    )   1.93160082 +1  101.3996057 +1    0.0000000 +0     1     2     0
  F(          4          X    )   1.43322525 +1   79.1211449 +1    0.5211991 +1     3     1     2
 
 *+*+*+*+*+*+*+*+*+*+*+*+*+*+*+*+*+*+*+*+*+*+*+*+*+*+*+*+*+*+*+*+*+*+*+*+*+*+*+*+
            BAR SHORTENED BY       1.000 PERCENT
 GRADIENT CRITERION IN FLEPO =     2.000


          FOR POINT   19 FIRST  STRUCTURE
 DISTANCE A - B      0.789743
 HEAT              -27.677217
 GRADIENT NORM      71.473414
 DIRECTION COSINE    0.999982
 GEO-OK PM7 PRECISE
 Tranzitny stav H2 + F2

  H(          1          X    )   0.00000000 +0    0.0000000 +0    0.0000000 +0
  H(          2          X    )   0.77254809 +1    0.0000000 +0    0.0000000 +0     1     0     0
  F(          3          X    )   1.92296092 +1  101.3725403 +1    0.0000000 +0     1     2     0
  F(          4          X    )   1.43390440 +1   79.1345712 +1    0.5456075 +1     3     1     2
 
 *+*+*+*+*+*+*+*+*+*+*+*+*+*+*+*+*+*+*+*+*+*+*+*+*+*+*+*+*+*+*+*+*+*+*+*+*+*+*+*+
            BAR SHORTENED BY       1.000 PERCENT
 GRADIENT CRITERION IN FLEPO =     2.000


          FOR POINT   20 FIRST  STRUCTURE
 DISTANCE A - B      0.781845
 HEAT              -27.106341
 GRADIENT NORM      73.265649
 DIRECTION COSINE    0.999987
 GEO-OK PM7 PRECISE
 Tranzitny stav H2 + F2

  H(          1          X    )   0.00000000 +0    0.0000000 +0    0.0000000 +0
  H(          2          X    )   0.77304235 +1    0.0000000 +0    0.0000000 +0     1     0     0
  F(          3          X    )   1.91453015 +1  101.3520771 +1    0.0000000 +0     1     2     0
  F(          4          X    )   1.43456941 +1   79.1335539 +1    0.5637920 +1     3     1     2
 
 TIME=     0.02
  REACTANTS AND PRODUCTS SWAPPED AROUND
 *+*+*+*+*+*+*+*+*+*+*+*+*+*+*+*+*+*+*+*+*+*+*+*+*+*+*+*+*+*+*+*+*+*+*+*+*+*+*+*+
            BAR SHORTENED BY       0.000 PERCENT
 GRADIENT CRITERION IN FLEPO =     2.000


          FOR POINT   21 SECOND STRUCTURE
 DISTANCE A - B      0.781845
 HEAT              -19.727195
 GRADIENT NORM     262.477430
 DIRECTION COSINE    0.999716
 GEO-OK PM7 PRECISE
 Tranzitny stav H2 + F2

  H(          1          X    )   0.00000000 +0    0.0000000 +0    0.0000000 +0
  H(          2          X    )   1.07873023 +1    0.0000000 +0    0.0000000 +0     1     0     0
  F(          3          X    )   1.23441340 +1  107.6876548 +1    0.0000000 +0     1     2     0
  F(          4          X    )   1.22007783 +1  105.8661716 +1   -0.2857277 +1     2     1     3
 
 TIME=     0.00
  REACTANTS AND PRODUCTS SWAPPED AROUND
 *+*+*+*+*+*+*+*+*+*+*+*+*+*+*+*+*+*+*+*+*+*+*+*+*+*+*+*+*+*+*+*+*+*+*+*+*+*+*+*+
            BAR SHORTENED BY       1.000 PERCENT
 GRADIENT CRITERION IN FLEPO =     2.000


          FOR POINT   22 FIRST  STRUCTURE
 DISTANCE A - B      0.774027
 HEAT              -26.529372
 GRADIENT NORM      74.919109
 DIRECTION COSINE    0.999758
 GEO-OK PM7 PRECISE
 Tranzitny stav H2 + F2

  H(          1          X    )   0.00000000 +0    0.0000000 +0    0.0000000 +0
  H(          2          X    )   0.77335656 +1    0.0000000 +0    0.0000000 +0     1     0     0
  F(          3          X    )   1.90615145 +1  101.3059458 +1    0.0000000 +0     1     2     0
  F(          4          X    )   1.43511568 +1   79.1450725 +1    0.4270758 +1     3     1     2
 
 *+*+*+*+*+*+*+*+*+*+*+*+*+*+*+*+*+*+*+*+*+*+*+*+*+*+*+*+*+*+*+*+*+*+*+*+*+*+*+*+
            BAR SHORTENED BY       1.000 PERCENT
 GRADIENT CRITERION IN FLEPO =     2.000


          FOR POINT   23 FIRST  STRUCTURE
 DISTANCE A - B      0.766287
 HEAT              -25.943333
 GRADIENT NORM      76.742478
 DIRECTION COSINE    0.999987
 GEO-OK PM7 PRECISE
 Tranzitny stav H2 + F2

  H(          1          X    )   0.00000000 +0    0.0000000 +0    0.0000000 +0
  H(          2          X    )   0.77387490 +1    0.0000000 +0    0.0000000 +0     1     0     0
  F(          3          X    )   1.89802061 +1  101.2683657 +1    0.0000000 +0     1     2     0
  F(          4          X    )   1.43580270 +1   79.1434709 +1    0.4336881 +1     3     1     2
 
 *+*+*+*+*+*+*+*+*+*+*+*+*+*+*+*+*+*+*+*+*+*+*+*+*+*+*+*+*+*+*+*+*+*+*+*+*+*+*+*+
            BAR SHORTENED BY       1.000 PERCENT
 GRADIENT CRITERION IN FLEPO =     2.000


          FOR POINT   24 FIRST  STRUCTURE
 DISTANCE A - B      0.758624
 HEAT              -25.348912
 GRADIENT NORM      78.579304
 DIRECTION COSINE    0.999989
 GEO-OK PM7 PRECISE
 Tranzitny stav H2 + F2

  H(          1          X    )   0.00000000 +0    0.0000000 +0    0.0000000 +0
  H(          2          X    )   0.77438629 +1    0.0000000 +0    0.0000000 +0     1     0     0
  F(          3          X    )   1.89002756 +1  101.2416099 +1    0.0000000 +0     1     2     0
  F(          4          X    )   1.43650885 +1   79.1311376 +1    0.4393364 +1     3     1     2
 
 TIME=     0.03
  REACTANTS AND PRODUCTS SWAPPED AROUND
 *+*+*+*+*+*+*+*+*+*+*+*+*+*+*+*+*+*+*+*+*+*+*+*+*+*+*+*+*+*+*+*+*+*+*+*+*+*+*+*+
            BAR SHORTENED BY       0.000 PERCENT
 GRADIENT CRITERION IN FLEPO =     2.000


          FOR POINT   25 SECOND STRUCTURE
 DISTANCE A - B      0.758624
 HEAT              -19.738779
 GRADIENT NORM     262.332741
 DIRECTION COSINE    0.999782
 GEO-OK PM7 PRECISE
 Tranzitny stav H2 + F2

  H(          1          X    )   0.00000000 +0    0.0000000 +0    0.0000000 +0
  H(          2          X    )   1.07495073 +1    0.0000000 +0    0.0000000 +0     1     0     0
  F(          3          X    )   1.22980169 +1  107.7468499 +1    0.0000000 +0     1     2     0
  F(          4          X    )   1.22280862 +1  105.9384978 +1   -0.3411247 +1     2     1     3
 
 TIME=     0.00
  REACTANTS AND PRODUCTS SWAPPED AROUND
 *+*+*+*+*+*+*+*+*+*+*+*+*+*+*+*+*+*+*+*+*+*+*+*+*+*+*+*+*+*+*+*+*+*+*+*+*+*+*+*+
            BAR SHORTENED BY       1.000 PERCENT
 GRADIENT CRITERION IN FLEPO =     2.000


          FOR POINT   26 FIRST  STRUCTURE
 DISTANCE A - B      0.751038
 HEAT              -24.748482
 GRADIENT NORM      80.202515
 DIRECTION COSINE    0.999824
 GEO-OK PM7 PRECISE
 Tranzitny stav H2 + F2

  H(          1          X    )   0.00000000 +0    0.0000000 +0    0.0000000 +0
  H(          2          X    )   0.77462526 +1    0.0000000 +0    0.0000000 +0     1     0     0
  F(          3          X    )   1.88153309 +1  101.2232449 +1    0.0000000 +0     1     2     0
  F(          4          X    )   1.43703382 +1   79.1523099 +1    0.4041480 +1     3     1     2
 
 *+*+*+*+*+*+*+*+*+*+*+*+*+*+*+*+*+*+*+*+*+*+*+*+*+*+*+*+*+*+*+*+*+*+*+*+*+*+*+*+
            BAR SHORTENED BY       1.000 PERCENT
 GRADIENT CRITERION IN FLEPO =     2.000


          FOR POINT   27 FIRST  STRUCTURE
 DISTANCE A - B      0.743527
 HEAT              -24.139537
 GRADIENT NORM      82.093933
 DIRECTION COSINE    0.999984
 GEO-OK PM7 PRECISE
 Tranzitny stav H2 + F2

  H(          1          X    )   0.00000000 +0    0.0000000 +0    0.0000000 +0
  H(          2          X    )   0.77517460 +1    0.0000000 +0    0.0000000 +0     1     0     0
  F(          3          X    )   1.87343307 +1  101.2099830 +1    0.0000000 +0     1     2     0
  F(          4          X    )   1.43780388 +1   79.1553194 +1    0.4222243 +1     3     1     2
 
 *+*+*+*+*+*+*+*+*+*+*+*+*+*+*+*+*+*+*+*+*+*+*+*+*+*+*+*+*+*+*+*+*+*+*+*+*+*+*+*+
            BAR SHORTENED BY       1.000 PERCENT
 GRADIENT CRITERION IN FLEPO =     2.000


          FOR POINT   28 FIRST  STRUCTURE
 DISTANCE A - B      0.736092
 HEAT              -23.522533
 GRADIENT NORM      83.979695
 DIRECTION COSINE    0.999988
 GEO-OK PM7 PRECISE
 Tranzitny stav H2 + F2

  H(          1          X    )   0.00000000 +0    0.0000000 +0    0.0000000 +0
  H(          2          X    )   0.77572291 +1    0.0000000 +0    0.0000000 +0     1     0     0
  F(          3          X    )   1.86552155 +1  101.2032099 +1    0.0000000 +0     1     2     0
  F(          4          X    )   1.43855349 +1   79.1451242 +1    0.4349630 +1     3     1     2
 
 TIME=     0.03
  REACTANTS AND PRODUCTS SWAPPED AROUND
 *+*+*+*+*+*+*+*+*+*+*+*+*+*+*+*+*+*+*+*+*+*+*+*+*+*+*+*+*+*+*+*+*+*+*+*+*+*+*+*+
            BAR SHORTENED BY       0.000 PERCENT
 GRADIENT CRITERION IN FLEPO =     2.000


          FOR POINT   29 SECOND STRUCTURE
 DISTANCE A - B      0.736092
 HEAT              -19.747123
 GRADIENT NORM     262.356128
 DIRECTION COSINE    0.999860
 GEO-OK PM7 PRECISE
 Tranzitny stav H2 + F2

  H(          1          X    )   0.00000000 +0    0.0000000 +0    0.0000000 +0
  H(          2          X    )   1.07173129 +1    0.0000000 +0    0.0000000 +0     1     0     0
  F(          3          X    )   1.22874910 +1  107.6047015 +1    0.0000000 +0     1     2     0
  F(          4          X    )   1.22162077 +1  106.1598851 +1   -0.3655823 +1     2     1     3
 
 TIME=     0.00
  REACTANTS AND PRODUCTS SWAPPED AROUND
 *+*+*+*+*+*+*+*+*+*+*+*+*+*+*+*+*+*+*+*+*+*+*+*+*+*+*+*+*+*+*+*+*+*+*+*+*+*+*+*+
            BAR SHORTENED BY       1.000 PERCENT
 GRADIENT CRITERION IN FLEPO =     2.000


          FOR POINT   30 FIRST  STRUCTURE
 DISTANCE A - B      0.728731
 HEAT              -22.899478
 GRADIENT NORM      85.666139
 DIRECTION COSINE    0.999886
 GEO-OK PM7 PRECISE
 Tranzitny stav H2 + F2

  H(          1          X    )   0.00000000 +0    0.0000000 +0    0.0000000 +0
  H(          2          X    )   0.77603286 +1    0.0000000 +0    0.0000000 +0     1     0     0
  F(          3          X    )   1.85753087 +1  101.1859738 +1    0.0000000 +0     1     2     0
  F(          4          X    )   1.43911872 +1   79.1456417 +1    0.4109726 +1     3     1     2
 
 *+*+*+*+*+*+*+*+*+*+*+*+*+*+*+*+*+*+*+*+*+*+*+*+*+*+*+*+*+*+*+*+*+*+*+*+*+*+*+*+
            BAR SHORTENED BY       1.000 PERCENT
 GRADIENT CRITERION IN FLEPO =     2.000


          FOR POINT   31 FIRST  STRUCTURE
 DISTANCE A - B      0.721444
 HEAT              -22.268479
 GRADIENT NORM      87.591405
 DIRECTION COSINE    0.999986
 GEO-OK PM7 PRECISE
 Tranzitny stav H2 + F2

  H(          1          X    )   0.00000000 +0    0.0000000 +0    0.0000000 +0
  H(          2          X    )   0.77659870 +1    0.0000000 +0    0.0000000 +0     1     0     0
  F(          3          X    )   1.84984398 +1  101.1765290 +1    0.0000000 +0     1     2     0
  F(          4          X    )   1.43992394 +1   79.1328516 +1    0.4254912 +1     3     1     2
 
 *+*+*+*+*+*+*+*+*+*+*+*+*+*+*+*+*+*+*+*+*+*+*+*+*+*+*+*+*+*+*+*+*+*+*+*+*+*+*+*+
            BAR SHORTENED BY       1.000 PERCENT
 GRADIENT CRITERION IN FLEPO =     2.000


          FOR POINT   32 FIRST  STRUCTURE
 DISTANCE A - B      0.714229
 HEAT              -21.629891
 GRADIENT NORM      89.512133
 DIRECTION COSINE    0.999990
 GEO-OK PM7 PRECISE
 Tranzitny stav H2 + F2

  H(          1          X    )   0.00000000 +0    0.0000000 +0    0.0000000 +0
  H(          2          X    )   0.77716746 +1    0.0000000 +0    0.0000000 +0     1     0     0
  F(          3          X    )   1.84229127 +1  101.1742508 +1    0.0000000 +0     1     2     0
  F(          4          X    )   1.44071125 +1   79.1107653 +1    0.4354058 +1     3     1     2
 
 TIME=     0.02
  REACTANTS AND PRODUCTS SWAPPED AROUND
 *+*+*+*+*+*+*+*+*+*+*+*+*+*+*+*+*+*+*+*+*+*+*+*+*+*+*+*+*+*+*+*+*+*+*+*+*+*+*+*+
            BAR SHORTENED BY       0.000 PERCENT
 GRADIENT CRITERION IN FLEPO =     2.000


          FOR POINT   33 SECOND STRUCTURE
 DISTANCE A - B      0.714229
 HEAT              -19.755331
 GRADIENT NORM     262.348181
 DIRECTION COSINE    0.999895
 GEO-OK PM7 PRECISE
 Tranzitny stav H2 + F2

  H(          1          X    )   0.00000000 +0    0.0000000 +0    0.0000000 +0
  H(          2          X    )   1.06855971 +1    0.0000000 +0    0.0000000 +0     1     0     0
  F(          3          X    )   1.22592507 +1  107.5817457 +1    0.0000000 +0     1     2     0
  F(          4          X    )   1.22241634 +1  106.2743346 +1   -0.3774122 +1     2     1     3
 
 TIME=     0.01
  REACTANTS AND PRODUCTS SWAPPED AROUND
 *+*+*+*+*+*+*+*+*+*+*+*+*+*+*+*+*+*+*+*+*+*+*+*+*+*+*+*+*+*+*+*+*+*+*+*+*+*+*+*+
            BAR SHORTENED BY       1.000 PERCENT
 GRADIENT CRITERION IN FLEPO =     2.000


          FOR POINT   34 FIRST  STRUCTURE
 DISTANCE A - B      0.707087
 HEAT              -20.985618
 GRADIENT NORM      91.238822
 DIRECTION COSINE    0.999915
 GEO-OK PM7 PRECISE
 Tranzitny stav H2 + F2

  H(          1          X    )   0.00000000 +0    0.0000000 +0    0.0000000 +0
  H(          2          X    )   0.77749409 +1    0.0000000 +0    0.0000000 +0     1     0     0
  F(          3          X    )   1.83447976 +1  101.1693995 +1    0.0000000 +0     1     2     0
  F(          4          X    )   1.44133044 +1   79.1089864 +1    0.4031171 +1     3     1     2
 
 *+*+*+*+*+*+*+*+*+*+*+*+*+*+*+*+*+*+*+*+*+*+*+*+*+*+*+*+*+*+*+*+*+*+*+*+*+*+*+*+
            BAR SHORTENED BY       1.000 PERCENT
 GRADIENT CRITERION IN FLEPO =     2.000


          FOR POINT   35 FIRST  STRUCTURE
 DISTANCE A - B      0.700016
 HEAT              -20.333769
 GRADIENT NORM      93.202910
 DIRECTION COSINE    0.999987
 GEO-OK PM7 PRECISE
 Tranzitny stav H2 + F2

  H(          1          X    )   0.00000000 +0    0.0000000 +0    0.0000000 +0
  H(          2          X    )   0.77808761 +1    0.0000000 +0    0.0000000 +0     1     0     0
  F(          3          X    )   1.82698037 +1  101.1709698 +1    0.0000000 +0     1     2     0
  F(          4          X    )   1.44218135 +1   79.0940797 +1    0.4155563 +1     3     1     2
 
 *+*+*+*+*+*+*+*+*+*+*+*+*+*+*+*+*+*+*+*+*+*+*+*+*+*+*+*+*+*+*+*+*+*+*+*+*+*+*+*+
            BAR SHORTENED BY       1.000 PERCENT
 GRADIENT CRITERION IN FLEPO =     2.000


          FOR POINT   36 FIRST  STRUCTURE
 DISTANCE A - B      0.693016
 HEAT              -19.674728
 GRADIENT NORM      95.159341
 DIRECTION COSINE    0.999990
 GEO-OK PM7 PRECISE
 Tranzitny stav H2 + F2

  H(          1          X    )   0.00000000 +0    0.0000000 +0    0.0000000 +0
  H(          2          X    )   0.77868208 +1    0.0000000 +0    0.0000000 +0     1     0     0
  F(          3          X    )   1.81961385 +1  101.1788827 +1    0.0000000 +0     1     2     0
  F(          4          X    )   1.44301294 +1   79.0702226 +1    0.4254526 +1     3     1     2
 
 TIME=     0.02
  REACTANTS AND PRODUCTS SWAPPED AROUND
 *+*+*+*+*+*+*+*+*+*+*+*+*+*+*+*+*+*+*+*+*+*+*+*+*+*+*+*+*+*+*+*+*+*+*+*+*+*+*+*+
            BAR SHORTENED BY       0.000 PERCENT
 GRADIENT CRITERION IN FLEPO =     2.000


          FOR POINT   37 SECOND STRUCTURE
 DISTANCE A - B      0.693016
 HEAT              -19.762570
 GRADIENT NORM     262.463481
 DIRECTION COSINE    0.999929
 GEO-OK PM7 PRECISE
 Tranzitny stav H2 + F2

  H(          1          X    )   0.00000000 +0    0.0000000 +0    0.0000000 +0
  H(          2          X    )   1.06536469 +1    0.0000000 +0    0.0000000 +0     1     0     0
  F(          3          X    )   1.22444197 +1  107.5282610 +1    0.0000000 +0     1     2     0
  F(          4          X    )   1.22142507 +1  106.4012943 +1   -0.3744941 +1     2     1     3
 
 *+*+*+*+*+*+*+*+*+*+*+*+*+*+*+*+*+*+*+*+*+*+*+*+*+*+*+*+*+*+*+*+*+*+*+*+*+*+*+*+
            BAR SHORTENED BY       1.000 PERCENT
 GRADIENT CRITERION IN FLEPO =     2.000


          FOR POINT   38 SECOND STRUCTURE
 DISTANCE A - B      0.686086
 HEAT              -17.947601
 GRADIENT NORM     261.046079
 DIRECTION COSINE    0.999997
 GEO-OK PM7 PRECISE
 Tranzitny stav H2 + F2

  H(          1          X    )   0.00000000 +0    0.0000000 +0    0.0000000 +0
  H(          2          X    )   1.05886544 +1    0.0000000 +0    0.0000000 +0     1     0     0
  F(          3          X    )   1.23122525 +1  107.4592592 +1    0.0000000 +0     1     2     0
  F(          4          X    )   1.22849479 +1  106.5876909 +1   -0.3460675 +1     2     1     3
 
 TIME=     0.02
  REACTANTS AND PRODUCTS SWAPPED AROUND
 *+*+*+*+*+*+*+*+*+*+*+*+*+*+*+*+*+*+*+*+*+*+*+*+*+*+*+*+*+*+*+*+*+*+*+*+*+*+*+*+
            BAR SHORTENED BY       1.000 PERCENT
 GRADIENT CRITERION IN FLEPO =     2.000


          FOR POINT   39 FIRST  STRUCTURE
 DISTANCE A - B      0.679225
 HEAT              -19.017429
 GRADIENT NORM      96.856679
 DIRECTION COSINE    0.999948
 GEO-OK PM7 PRECISE
 Tranzitny stav H2 + F2

  H(          1          X    )   0.00000000 +0    0.0000000 +0    0.0000000 +0
  H(          2          X    )   0.77878890 +1    0.0000000 +0    0.0000000 +0     1     0     0
  F(          3          X    )   1.81212116 +1  101.1770950 +1    0.0000000 +0     1     2     0
  F(          4          X    )   1.44379455 +1   79.0644312 +1    0.3890842 +1     3     1     2
 
 *+*+*+*+*+*+*+*+*+*+*+*+*+*+*+*+*+*+*+*+*+*+*+*+*+*+*+*+*+*+*+*+*+*+*+*+*+*+*+*+
            BAR SHORTENED BY       1.000 PERCENT
 GRADIENT CRITERION IN FLEPO =     2.000


          FOR POINT   40 FIRST  STRUCTURE
 DISTANCE A - B      0.672433
 HEAT              -18.353028
 GRADIENT NORM      98.843625
 DIRECTION COSINE    0.999987
 GEO-OK PM7 PRECISE
 Tranzitny stav H2 + F2

  H(          1          X    )   0.00000000 +0    0.0000000 +0    0.0000000 +0
  H(          2          X    )   0.77941173 +1    0.0000000 +0    0.0000000 +0     1     0     0
  F(          3          X    )   1.80500383 +1  101.1730291 +1    0.0000000 +0     1     2     0
  F(          4          X    )   1.44469495 +1   79.0472453 +1    0.3907413 +1     3     1     2
 
 *+*+*+*+*+*+*+*+*+*+*+*+*+*+*+*+*+*+*+*+*+*+*+*+*+*+*+*+*+*+*+*+*+*+*+*+*+*+*+*+
            BAR SHORTENED BY       1.000 PERCENT
 GRADIENT CRITERION IN FLEPO =     2.000


          FOR POINT   41 FIRST  STRUCTURE
 DISTANCE A - B      0.665708
 HEAT              -17.681995
 GRADIENT NORM     100.814657
 DIRECTION COSINE    0.999990
 GEO-OK PM7 PRECISE
 Tranzitny stav H2 + F2

  H(          1          X    )   0.00000000 +0    0.0000000 +0    0.0000000 +0
  H(          2          X    )   0.78001659 +1    0.0000000 +0    0.0000000 +0     1     0     0
  F(          3          X    )   1.79799315 +1  101.1775074 +1    0.0000000 +0     1     2     0
  F(          4          X    )   1.44557936 +1   79.0214870 +1    0.3951286 +1     3     1     2
 
 TIME=     0.02
  REACTANTS AND PRODUCTS SWAPPED AROUND
 *+*+*+*+*+*+*+*+*+*+*+*+*+*+*+*+*+*+*+*+*+*+*+*+*+*+*+*+*+*+*+*+*+*+*+*+*+*+*+*+
            BAR SHORTENED BY       0.000 PERCENT
 GRADIENT CRITERION IN FLEPO =     2.000


          FOR POINT   42 SECOND STRUCTURE
 DISTANCE A - B      0.665708
 HEAT              -17.952840
 GRADIENT NORM     261.355335
 DIRECTION COSINE    0.999957
 GEO-OK PM7 PRECISE
 Tranzitny stav H2 + F2

  H(          1          X    )   0.00000000 +0    0.0000000 +0    0.0000000 +0
  H(          2          X    )   1.05656658 +1    0.0000000 +0    0.0000000 +0     1     0     0
  F(          3          X    )   1.22991325 +1  107.4360301 +1    0.0000000 +0     1     2     0
  F(          4          X    )   1.22737973 +1  106.6368471 +1   -0.3445092 +1     2     1     3
 
 *+*+*+*+*+*+*+*+*+*+*+*+*+*+*+*+*+*+*+*+*+*+*+*+*+*+*+*+*+*+*+*+*+*+*+*+*+*+*+*+
            BAR SHORTENED BY       1.000 PERCENT
 GRADIENT CRITERION IN FLEPO =     2.000


          FOR POINT   43 SECOND STRUCTURE
 DISTANCE A - B      0.659051
 HEAT              -16.216600
 GRADIENT NORM     260.066586
 DIRECTION COSINE    0.999994
 GEO-OK PM7 PRECISE
 Tranzitny stav H2 + F2

  H(          1          X    )   0.00000000 +0    0.0000000 +0    0.0000000 +0
  H(          2          X    )   1.05111391 +1    0.0000000 +0    0.0000000 +0     1     0     0
  F(          3          X    )   1.23612112 +1  107.4275808 +1    0.0000000 +0     1     2     0
  F(          4          X    )   1.23438124 +1  106.7054500 +1   -0.3122437 +1     2     1     3
 
 TIME=     0.02
  REACTANTS AND PRODUCTS SWAPPED AROUND
 *+*+*+*+*+*+*+*+*+*+*+*+*+*+*+*+*+*+*+*+*+*+*+*+*+*+*+*+*+*+*+*+*+*+*+*+*+*+*+*+
            BAR SHORTENED BY       1.000 PERCENT
 GRADIENT CRITERION IN FLEPO =     2.000


          FOR POINT   44 FIRST  STRUCTURE
 DISTANCE A - B      0.652461
 HEAT              -17.012795
 GRADIENT NORM     102.565768
 DIRECTION COSINE    0.999966
 GEO-OK PM7 PRECISE
 Tranzitny stav H2 + F2

  H(          1          X    )   0.00000000 +0    0.0000000 +0    0.0000000 +0
  H(          2          X    )   0.78022903 +1    0.0000000 +0    0.0000000 +0     1     0     0
  F(          3          X    )   1.79087008 +1  101.1847073 +1    0.0000000 +0     1     2     0
  F(          4          X    )   1.44640372 +1   79.0065352 +1    0.3486232 +1     3     1     2
 
 *+*+*+*+*+*+*+*+*+*+*+*+*+*+*+*+*+*+*+*+*+*+*+*+*+*+*+*+*+*+*+*+*+*+*+*+*+*+*+*+
            BAR SHORTENED BY       1.000 PERCENT
 GRADIENT CRITERION IN FLEPO =     2.000


          FOR POINT   45 FIRST  STRUCTURE
 DISTANCE A - B      0.645936
 HEAT              -16.337195
 GRADIENT NORM     104.558707
 DIRECTION COSINE    0.999988
 GEO-OK PM7 PRECISE
 Tranzitny stav H2 + F2

  H(          1          X    )   0.00000000 +0    0.0000000 +0    0.0000000 +0
  H(          2          X    )   0.78086466 +1    0.0000000 +0    0.0000000 +0     1     0     0
  F(          3          X    )   1.78406270 +1  101.1911530 +1    0.0000000 +0     1     2     0
  F(          4          X    )   1.44734141 +1   78.9823214 +1    0.3498270 +1     3     1     2
 
 *+*+*+*+*+*+*+*+*+*+*+*+*+*+*+*+*+*+*+*+*+*+*+*+*+*+*+*+*+*+*+*+*+*+*+*+*+*+*+*+
            BAR SHORTENED BY       1.000 PERCENT
 GRADIENT CRITERION IN FLEPO =     2.000


          FOR POINT   46 FIRST  STRUCTURE
 DISTANCE A - B      0.639477
 HEAT              -15.655581
 GRADIENT NORM     106.537844
 DIRECTION COSINE    0.999991
 GEO-OK PM7 PRECISE
 Tranzitny stav H2 + F2

  H(          1          X    )   0.00000000 +0    0.0000000 +0    0.0000000 +0
  H(          2          X    )   0.78148374 +1    0.0000000 +0    0.0000000 +0     1     0     0
  F(          3          X    )   1.77734772 +1  101.2051967 +1    0.0000000 +0     1     2     0
  F(          4          X    )   1.44826953 +1   78.9511680 +1    0.3514869 +1     3     1     2
 
 TIME=     0.02
  REACTANTS AND PRODUCTS SWAPPED AROUND
 *+*+*+*+*+*+*+*+*+*+*+*+*+*+*+*+*+*+*+*+*+*+*+*+*+*+*+*+*+*+*+*+*+*+*+*+*+*+*+*+
            BAR SHORTENED BY       0.000 PERCENT
 GRADIENT CRITERION IN FLEPO =     2.000


          FOR POINT   47 SECOND STRUCTURE
 DISTANCE A - B      0.639477
 HEAT              -16.221803
 GRADIENT NORM     260.346839
 DIRECTION COSINE    0.999969
 GEO-OK PM7 PRECISE
 Tranzitny stav H2 + F2

  H(          1          X    )   0.00000000 +0    0.0000000 +0    0.0000000 +0
  H(          2          X    )   1.04858413 +1    0.0000000 +0    0.0000000 +0     1     0     0
  F(          3          X    )   1.23498829 +1  107.4095050 +1    0.0000000 +0     1     2     0
  F(          4          X    )   1.23314129 +1  106.7676820 +1   -0.3170589 +1     2     1     3
 
 *+*+*+*+*+*+*+*+*+*+*+*+*+*+*+*+*+*+*+*+*+*+*+*+*+*+*+*+*+*+*+*+*+*+*+*+*+*+*+*+
            BAR SHORTENED BY       1.000 PERCENT
 GRADIENT CRITERION IN FLEPO =     2.000


          FOR POINT   48 SECOND STRUCTURE
 DISTANCE A - B      0.633082
 HEAT              -14.560743
 GRADIENT NORM     258.970498
 DIRECTION COSINE    0.999994
 GEO-OK PM7 PRECISE
 Tranzitny stav H2 + F2

  H(          1          X    )   0.00000000 +0    0.0000000 +0    0.0000000 +0
  H(          2          X    )   1.04316609 +1    0.0000000 +0    0.0000000 +0     1     0     0
  F(          3          X    )   1.24096347 +1  107.4000923 +1    0.0000000 +0     1     2     0
  F(          4          X    )   1.23989095 +1  106.8439035 +1   -0.2896901 +1     2     1     3
 
 TIME=     0.01
  REACTANTS AND PRODUCTS SWAPPED AROUND
 *+*+*+*+*+*+*+*+*+*+*+*+*+*+*+*+*+*+*+*+*+*+*+*+*+*+*+*+*+*+*+*+*+*+*+*+*+*+*+*+
            BAR SHORTENED BY       1.000 PERCENT
 GRADIENT CRITERION IN FLEPO =     2.000


          FOR POINT   49 FIRST  STRUCTURE
 DISTANCE A - B      0.626751
 HEAT              -14.976479
 GRADIENT NORM     108.286052
 DIRECTION COSINE    0.999978
 GEO-OK PM7 PRECISE
 Tranzitny stav H2 + F2

  H(          1          X    )   0.00000000 +0    0.0000000 +0    0.0000000 +0
  H(          2          X    )   0.78166866 +1    0.0000000 +0    0.0000000 +0     1     0     0
  F(          3          X    )   1.77053250 +1  101.2214570 +1    0.0000000 +0     1     2     0
  F(          4          X    )   1.44915212 +1   78.9291275 +1    0.3118364 +1     3     1     2
 
 *+*+*+*+*+*+*+*+*+*+*+*+*+*+*+*+*+*+*+*+*+*+*+*+*+*+*+*+*+*+*+*+*+*+*+*+*+*+*+*+
            BAR SHORTENED BY       1.000 PERCENT
 GRADIENT CRITERION IN FLEPO =     2.000


          FOR POINT   50 FIRST  STRUCTURE
 DISTANCE A - B      0.620484
 HEAT              -14.291576
 GRADIENT NORM     110.284745
 DIRECTION COSINE    0.999989
 GEO-OK PM7 PRECISE
 Tranzitny stav H2 + F2

  H(          1          X    )   0.00000000 +0    0.0000000 +0    0.0000000 +0
  H(          2          X    )   0.78231740 +1    0.0000000 +0    0.0000000 +0     1     0     0
  F(          3          X    )   1.76402933 +1  101.2346932 +1    0.0000000 +0     1     2     0
  F(          4          X    )   1.45013624 +1   78.8998873 +1    0.3138497 +1     3     1     2
 
 TIME=     0.02
  REACTANTS AND PRODUCTS SWAPPED AROUND
 *+*+*+*+*+*+*+*+*+*+*+*+*+*+*+*+*+*+*+*+*+*+*+*+*+*+*+*+*+*+*+*+*+*+*+*+*+*+*+*+
            BAR SHORTENED BY       1.000 PERCENT
 GRADIENT CRITERION IN FLEPO =     2.000


          FOR POINT   51 SECOND STRUCTURE
 DISTANCE A - B      0.614279
 HEAT              -12.955978
 GRADIENT NORM     257.493632
 DIRECTION COSINE    0.999986
 GEO-OK PM7 PRECISE
 Tranzitny stav H2 + F2

  H(          1          X    )   0.00000000 +0    0.0000000 +0    0.0000000 +0
  H(          2          X    )   1.03511090 +1    0.0000000 +0    0.0000000 +0     1     0     0
  F(          3          X    )   1.24750424 +1  107.4004641 +1    0.0000000 +0     1     2     0
  F(          4          X    )   1.24426372 +1  107.0043497 +1   -0.1204400 +1     2     1     3
 
 TIME=     0.01
  REACTANTS AND PRODUCTS SWAPPED AROUND
 *+*+*+*+*+*+*+*+*+*+*+*+*+*+*+*+*+*+*+*+*+*+*+*+*+*+*+*+*+*+*+*+*+*+*+*+*+*+*+*+
            BAR SHORTENED BY       1.000 PERCENT
 GRADIENT CRITERION IN FLEPO =     2.000


          FOR POINT   52 FIRST  STRUCTURE
 DISTANCE A - B      0.608136
 HEAT              -13.610099
 GRADIENT NORM     112.128945
 DIRECTION COSINE    0.999978
 GEO-OK PM7 PRECISE
 Tranzitny stav H2 + F2

  H(          1          X    )   0.00000000 +0    0.0000000 +0    0.0000000 +0
  H(          2          X    )   0.78252610 +1    0.0000000 +0    0.0000000 +0     1     0     0
  F(          3          X    )   1.75782887 +1  101.2514483 +1    0.0000000 +0     1     2     0
  F(          4          X    )   1.45123572 +1   78.8518150 +1    0.1544021 +1     3     1     2
 
 *+*+*+*+*+*+*+*+*+*+*+*+*+*+*+*+*+*+*+*+*+*+*+*+*+*+*+*+*+*+*+*+*+*+*+*+*+*+*+*+
            BAR SHORTENED BY       1.000 PERCENT
 GRADIENT CRITERION IN FLEPO =     2.000


          FOR POINT   53 FIRST  STRUCTURE
 DISTANCE A - B      0.602055
 HEAT              -12.922517
 GRADIENT NORM     114.078982
 DIRECTION COSINE    0.999993
 GEO-OK PM7 PRECISE
 Tranzitny stav H2 + F2

  H(          1          X    )   0.00000000 +0    0.0000000 +0    0.0000000 +0
  H(          2          X    )   0.78315937 +1    0.0000000 +0    0.0000000 +0     1     0     0
  F(          3          X    )   1.75168742 +1  101.2629216 +1    0.0000000 +0     1     2     0
  F(          4          X    )   1.45217886 +1   78.8097698 +1    0.1503183 +1     3     1     2
 
 TIME=     0.01
  REACTANTS AND PRODUCTS SWAPPED AROUND
 *+*+*+*+*+*+*+*+*+*+*+*+*+*+*+*+*+*+*+*+*+*+*+*+*+*+*+*+*+*+*+*+*+*+*+*+*+*+*+*+
            BAR SHORTENED BY       1.000 PERCENT
 GRADIENT CRITERION IN FLEPO =     2.000


          FOR POINT   54 SECOND STRUCTURE
 DISTANCE A - B      0.596034
 HEAT              -11.406421
 GRADIENT NORM     257.266991
 DIRECTION COSINE    0.999970
 GEO-OK PM7 PRECISE
 Tranzitny stav H2 + F2

  H(          1          X    )   0.00000000 +0    0.0000000 +0    0.0000000 +0
  H(          2          X    )   1.03259138 +1    0.0000000 +0    0.0000000 +0     1     0     0
  F(          3          X    )   1.25244618 +1  107.3146133 +1    0.0000000 +0     1     2     0
  F(          4          X    )   1.24922553 +1  106.9172226 +1   -0.1204465 +1     2     1     3
 
 TIME=     0.01
  REACTANTS AND PRODUCTS SWAPPED AROUND
 *+*+*+*+*+*+*+*+*+*+*+*+*+*+*+*+*+*+*+*+*+*+*+*+*+*+*+*+*+*+*+*+*+*+*+*+*+*+*+*+
            BAR SHORTENED BY       1.000 PERCENT
 GRADIENT CRITERION IN FLEPO =     2.000


          FOR POINT   55 FIRST  STRUCTURE
 DISTANCE A - B      0.590074
 HEAT              -12.236910
 GRADIENT NORM     116.027599
 DIRECTION COSINE    0.999956
 GEO-OK PM7 PRECISE
 Tranzitny stav H2 + F2

  H(          1          X    )   0.00000000 +0    0.0000000 +0    0.0000000 +0
  H(          2          X    )   0.78377809 +1    0.0000000 +0    0.0000000 +0     1     0     0
  F(          3          X    )   1.74561847 +1  101.2843062 +1    0.0000000 +0     1     2     0
  F(          4          X    )   1.45316620 +1   78.7674946 +1    0.1574015 +1     3     1     2
 
 *+*+*+*+*+*+*+*+*+*+*+*+*+*+*+*+*+*+*+*+*+*+*+*+*+*+*+*+*+*+*+*+*+*+*+*+*+*+*+*+
            BAR SHORTENED BY       1.000 PERCENT
 GRADIENT CRITERION IN FLEPO =     2.000


          FOR POINT   56 FIRST  STRUCTURE
 DISTANCE A - B      0.584173
 HEAT              -11.546616
 GRADIENT NORM     117.990805
 DIRECTION COSINE    0.999992
 GEO-OK PM7 PRECISE
 Tranzitny stav H2 + F2

  H(          1          X    )   0.00000000 +0    0.0000000 +0    0.0000000 +0
  H(          2          X    )   0.78441275 +1    0.0000000 +0    0.0000000 +0     1     0     0
  F(          3          X    )   1.73957840 +1  101.3120876 +1    0.0000000 +0     1     2     0
  F(          4          X    )   1.45417980 +1   78.7249555 +1    0.1668244 +1     3     1     2
 
 *+*+*+*+*+*+*+*+*+*+*+*+*+*+*+*+*+*+*+*+*+*+*+*+*+*+*+*+*+*+*+*+*+*+*+*+*+*+*+*+
            BAR SHORTENED BY       1.000 PERCENT
 GRADIENT CRITERION IN FLEPO =     2.000


          FOR POINT   57 FIRST  STRUCTURE
 DISTANCE A - B      0.578331
 HEAT              -10.851790
 GRADIENT NORM     119.942103
 DIRECTION COSINE    0.999993
 GEO-OK PM7 PRECISE
 Tranzitny stav H2 + F2

  H(          1          X    )   0.00000000 +0    0.0000000 +0    0.0000000 +0
  H(          2          X    )   0.78505490 +1    0.0000000 +0    0.0000000 +0     1     0     0
  F(          3          X    )   1.73356830 +1  101.3437923 +1    0.0000000 +0     1     2     0
  F(          4          X    )   1.45517300 +1   78.6820992 +1    0.1686401 +1     3     1     2
 
 TIME=     0.02
  REACTANTS AND PRODUCTS SWAPPED AROUND
 *+*+*+*+*+*+*+*+*+*+*+*+*+*+*+*+*+*+*+*+*+*+*+*+*+*+*+*+*+*+*+*+*+*+*+*+*+*+*+*+
            BAR SHORTENED BY       0.000 PERCENT
 GRADIENT CRITERION IN FLEPO =     2.000


          FOR POINT   58 SECOND STRUCTURE
 DISTANCE A - B      0.578331
 HEAT              -11.413690
 GRADIENT NORM     257.215796
 DIRECTION COSINE    0.999968
 GEO-OK PM7 PRECISE
 Tranzitny stav H2 + F2

  H(          1          X    )   0.00000000 +0    0.0000000 +0    0.0000000 +0
  H(          2          X    )   1.02851690 +1    0.0000000 +0    0.0000000 +0     1     0     0
  F(          3          X    )   1.25084969 +1  107.3913919 +1    0.0000000 +0     1     2     0
  F(          4          X    )   1.24877392 +1  106.9918361 +1   -0.1439417 +1     2     1     3
 
 *+*+*+*+*+*+*+*+*+*+*+*+*+*+*+*+*+*+*+*+*+*+*+*+*+*+*+*+*+*+*+*+*+*+*+*+*+*+*+*+
            BAR SHORTENED BY       1.000 PERCENT
 GRADIENT CRITERION IN FLEPO =     2.000


          FOR POINT   59 SECOND STRUCTURE
 DISTANCE A - B      0.572548
 HEAT               -9.930321
 GRADIENT NORM     255.412948
 DIRECTION COSINE    0.999994
 GEO-OK PM7 PRECISE
 Tranzitny stav H2 + F2

  H(          1          X    )   0.00000000 +0    0.0000000 +0    0.0000000 +0
  H(          2          X    )   1.02196354 +1    0.0000000 +0    0.0000000 +0     1     0     0
  F(          3          X    )   1.25626265 +1  107.3979573 +1    0.0000000 +0     1     2     0
  F(          4          X    )   1.25495728 +1  107.1354190 +1   -0.1400479 +1     2     1     3
 
 TIME=     0.02
  REACTANTS AND PRODUCTS SWAPPED AROUND
 *+*+*+*+*+*+*+*+*+*+*+*+*+*+*+*+*+*+*+*+*+*+*+*+*+*+*+*+*+*+*+*+*+*+*+*+*+*+*+*+
            BAR SHORTENED BY       1.000 PERCENT
 GRADIENT CRITERION IN FLEPO =     2.000


          FOR POINT   60 FIRST  STRUCTURE
 DISTANCE A - B      0.566823
 HEAT              -10.161696
 GRADIENT NORM     121.558112
 DIRECTION COSINE    0.999992
 GEO-OK PM7 PRECISE
 Tranzitny stav H2 + F2

  H(          1          X    )   0.00000000 +0    0.0000000 +0    0.0000000 +0
  H(          2          X    )   0.78489504 +1    0.0000000 +0    0.0000000 +0     1     0     0
  F(          3          X    )   1.72721035 +1  101.3910392 +1    0.0000000 +0     1     2     0
  F(          4          X    )   1.45623254 +1   78.6551399 +1    0.1527339 +1     3     1     2
 
 *+*+*+*+*+*+*+*+*+*+*+*+*+*+*+*+*+*+*+*+*+*+*+*+*+*+*+*+*+*+*+*+*+*+*+*+*+*+*+*+
            BAR SHORTENED BY       1.000 PERCENT
 GRADIENT CRITERION IN FLEPO =     2.000


          FOR POINT   61 FIRST  STRUCTURE
 DISTANCE A - B      0.561154
 HEAT               -9.467010
 GRADIENT NORM     123.551320
 DIRECTION COSINE    0.999989
 GEO-OK PM7 PRECISE
 Tranzitny stav H2 + F2

  H(          1          X    )   0.00000000 +0    0.0000000 +0    0.0000000 +0
  H(          2          X    )   0.78558023 +1    0.0000000 +0    0.0000000 +0     1     0     0
  F(          3          X    )   1.72133175 +1  101.4176154 +1    0.0000000 +0     1     2     0
  F(          4          X    )   1.45733383 +1   78.6233385 +1    0.1629758 +1     3     1     2
 
 TIME=     0.02
  REACTANTS AND PRODUCTS SWAPPED AROUND
 *+*+*+*+*+*+*+*+*+*+*+*+*+*+*+*+*+*+*+*+*+*+*+*+*+*+*+*+*+*+*+*+*+*+*+*+*+*+*+*+
            BAR SHORTENED BY       1.000 PERCENT
 GRADIENT CRITERION IN FLEPO =     2.000


          FOR POINT   62 SECOND STRUCTURE
 DISTANCE A - B      0.555543
 HEAT               -8.499799
 GRADIENT NORM     254.320838
 DIRECTION COSINE    0.999991
 GEO-OK PM7 PRECISE
 Tranzitny stav H2 + F2

  H(          1          X    )   0.00000000 +0    0.0000000 +0    0.0000000 +0
  H(          2          X    )   1.01756424 +1    0.0000000 +0    0.0000000 +0     1     0     0
  F(          3          X    )   1.26117244 +1  107.4094912 +1    0.0000000 +0     1     2     0
  F(          4          X    )   1.26035651 +1  107.1205390 +1   -0.1698892 +1     2     1     3
 
 TIME=     0.01
  REACTANTS AND PRODUCTS SWAPPED AROUND
 *+*+*+*+*+*+*+*+*+*+*+*+*+*+*+*+*+*+*+*+*+*+*+*+*+*+*+*+*+*+*+*+*+*+*+*+*+*+*+*+
            BAR SHORTENED BY       1.000 PERCENT
 GRADIENT CRITERION IN FLEPO =     2.000


          FOR POINT   63 FIRST  STRUCTURE
 DISTANCE A - B      0.549987
 HEAT               -8.775352
 GRADIENT NORM     125.473836
 DIRECTION COSINE    0.999988
 GEO-OK PM7 PRECISE
 Tranzitny stav H2 + F2

  H(          1          X    )   0.00000000 +0    0.0000000 +0    0.0000000 +0
  H(          2          X    )   0.78601738 +1    0.0000000 +0    0.0000000 +0     1     0     0
  F(          3          X    )   1.71550354 +1  101.4579450 +1    0.0000000 +0     1     2     0
  F(          4          X    )   1.45854836 +1   78.5877824 +1    0.1600917 +1     3     1     2
 
 *+*+*+*+*+*+*+*+*+*+*+*+*+*+*+*+*+*+*+*+*+*+*+*+*+*+*+*+*+*+*+*+*+*+*+*+*+*+*+*+
            BAR SHORTENED BY       1.000 PERCENT
 GRADIENT CRITERION IN FLEPO =     2.000


          FOR POINT   64 FIRST  STRUCTURE
 DISTANCE A - B      0.544487
 HEAT               -8.079854
 GRADIENT NORM     127.439723
 DIRECTION COSINE    0.999991
 GEO-OK PM7 PRECISE
 Tranzitny stav H2 + F2

  H(          1          X    )   0.00000000 +0    0.0000000 +0    0.0000000 +0
  H(          2          X    )   0.78669098 +1    0.0000000 +0    0.0000000 +0     1     0     0
  F(          3          X    )   1.70983954 +1  101.4913990 +1    0.0000000 +0     1     2     0
  F(          4          X    )   1.45965769 +1   78.5492818 +1    0.1748145 +1     3     1     2
 
 TIME=     0.02
  REACTANTS AND PRODUCTS SWAPPED AROUND
 *+*+*+*+*+*+*+*+*+*+*+*+*+*+*+*+*+*+*+*+*+*+*+*+*+*+*+*+*+*+*+*+*+*+*+*+*+*+*+*+
            BAR SHORTENED BY       1.000 PERCENT
 GRADIENT CRITERION IN FLEPO =     2.000


          FOR POINT   65 SECOND STRUCTURE
 DISTANCE A - B      0.539043
 HEAT               -7.118333
 GRADIENT NORM     253.430228
 DIRECTION COSINE    0.999983
 GEO-OK PM7 PRECISE
 Tranzitny stav H2 + F2

  H(          1          X    )   0.00000000 +0    0.0000000 +0    0.0000000 +0
  H(          2          X    )   1.01189925 +1    0.0000000 +0    0.0000000 +0     1     0     0
  F(          3          X    )   1.26626983 +1  107.2672347 +1    0.0000000 +0     1     2     0
  F(          4          X    )   1.26404198 +1  107.2907522 +1   -0.1598532 +1     2     1     3
 
 TIME=     0.01
  REACTANTS AND PRODUCTS SWAPPED AROUND
 *+*+*+*+*+*+*+*+*+*+*+*+*+*+*+*+*+*+*+*+*+*+*+*+*+*+*+*+*+*+*+*+*+*+*+*+*+*+*+*+
            BAR SHORTENED BY       1.000 PERCENT
 GRADIENT CRITERION IN FLEPO =     2.000


          FOR POINT   66 FIRST  STRUCTURE
 DISTANCE A - B      0.533652
 HEAT               -7.388746
 GRADIENT NORM     129.239094
 DIRECTION COSINE    0.999995
 GEO-OK PM7 PRECISE
 Tranzitny stav H2 + F2

  H(          1          X    )   0.00000000 +0    0.0000000 +0    0.0000000 +0
  H(          2          X    )   0.78698600 +1    0.0000000 +0    0.0000000 +0     1     0     0
  F(          3          X    )   1.70439183 +1  101.5029301 +1    0.0000000 +0     1     2     0
  F(          4          X    )   1.46079813 +1   78.5093002 +1    0.1914083 +1     3     1     2
 
 *+*+*+*+*+*+*+*+*+*+*+*+*+*+*+*+*+*+*+*+*+*+*+*+*+*+*+*+*+*+*+*+*+*+*+*+*+*+*+*+
            BAR SHORTENED BY       1.000 PERCENT
 GRADIENT CRITERION IN FLEPO =     2.000


          FOR POINT   67 FIRST  STRUCTURE
 DISTANCE A - B      0.528316
 HEAT               -6.694084
 GRADIENT NORM     131.173104
 DIRECTION COSINE    0.999992
 GEO-OK PM7 PRECISE
 Tranzitny stav H2 + F2

  H(          1          X    )   0.00000000 +0    0.0000000 +0    0.0000000 +0
  H(          2          X    )   0.78763667 +1    0.0000000 +0    0.0000000 +0     1     0     0
  F(          3          X    )   1.69905568 +1  101.5158497 +1    0.0000000 +0     1     2     0
  F(          4          X    )   1.46192184 +1   78.4703590 +1    0.1914360 +1     3     1     2
 
 TIME=     0.02
  REACTANTS AND PRODUCTS SWAPPED AROUND
 *+*+*+*+*+*+*+*+*+*+*+*+*+*+*+*+*+*+*+*+*+*+*+*+*+*+*+*+*+*+*+*+*+*+*+*+*+*+*+*+
            BAR SHORTENED BY       1.000 PERCENT
 GRADIENT CRITERION IN FLEPO =     2.000


          FOR POINT   68 SECOND STRUCTURE
 DISTANCE A - B      0.523032
 HEAT               -5.783820
 GRADIENT NORM     251.762561
 DIRECTION COSINE    0.999986
 GEO-OK PM7 PRECISE
 Tranzitny stav H2 + F2

  H(          1          X    )   0.00000000 +0    0.0000000 +0    0.0000000 +0
  H(          2          X    )   1.00679078 +1    0.0000000 +0    0.0000000 +0     1     0     0
  F(          3          X    )   1.27099372 +1  107.3968268 +1    0.0000000 +0     1     2     0
  F(          4          X    )   1.26997824 +1  107.2452483 +1   -0.1518226 +1     2     1     3
 
 TIME=     0.01
  REACTANTS AND PRODUCTS SWAPPED AROUND
 *+*+*+*+*+*+*+*+*+*+*+*+*+*+*+*+*+*+*+*+*+*+*+*+*+*+*+*+*+*+*+*+*+*+*+*+*+*+*+*+
            BAR SHORTENED BY       1.000 PERCENT
 GRADIENT CRITERION IN FLEPO =     2.000


          FOR POINT   69 FIRST  STRUCTURE
 DISTANCE A - B      0.517802
 HEAT               -6.003121
 GRADIENT NORM     133.085864
 DIRECTION COSINE    0.999978
 GEO-OK PM7 PRECISE
 Tranzitny stav H2 + F2

  H(          1          X    )   0.00000000 +0    0.0000000 +0    0.0000000 +0
  H(          2          X    )   0.78797363 +1    0.0000000 +0    0.0000000 +0     1     0     0
  F(          3          X    )   1.69358454 +1  101.5708116 +1    0.0000000 +0     1     2     0
  F(          4          X    )   1.46332729 +1   78.4293363 +1    0.1558250 +1     3     1     2
 
 *+*+*+*+*+*+*+*+*+*+*+*+*+*+*+*+*+*+*+*+*+*+*+*+*+*+*+*+*+*+*+*+*+*+*+*+*+*+*+*+
            BAR SHORTENED BY       1.000 PERCENT
 GRADIENT CRITERION IN FLEPO =     2.000


          FOR POINT   70 FIRST  STRUCTURE
 DISTANCE A - B      0.512624
 HEAT               -5.308942
 GRADIENT NORM     135.033006
 DIRECTION COSINE    0.999991
 GEO-OK PM7 PRECISE
 Tranzitny stav H2 + F2

  H(          1          X    )   0.00000000 +0    0.0000000 +0    0.0000000 +0
  H(          2          X    )   0.78866130 +1    0.0000000 +0    0.0000000 +0     1     0     0
  F(          3          X    )   1.68828930 +1  101.6105285 +1    0.0000000 +0     1     2     0
  F(          4          X    )   1.46450916 +1   78.3877792 +1    0.1578982 +1     3     1     2
 
 TIME=     0.02
  REACTANTS AND PRODUCTS SWAPPED AROUND
 *+*+*+*+*+*+*+*+*+*+*+*+*+*+*+*+*+*+*+*+*+*+*+*+*+*+*+*+*+*+*+*+*+*+*+*+*+*+*+*+
            BAR SHORTENED BY       1.000 PERCENT
 GRADIENT CRITERION IN FLEPO =     2.000


          FOR POINT   71 SECOND STRUCTURE
 DISTANCE A - B      0.507498
 HEAT               -4.495506
 GRADIENT NORM     251.142556
 DIRECTION COSINE    0.999985
 GEO-OK PM7 PRECISE
 Tranzitny stav H2 + F2

  H(          1          X    )   0.00000000 +0    0.0000000 +0    0.0000000 +0
  H(          2          X    )   1.00121537 +1    0.0000000 +0    0.0000000 +0     1     0     0
  F(          3          X    )   1.27608066 +1  107.2113499 +1    0.0000000 +0     1     2     0
  F(          4          X    )   1.27239893 +1  107.4424727 +1   -0.1512548 +1     2     1     3
 
 TIME=     0.01
  REACTANTS AND PRODUCTS SWAPPED AROUND
 *+*+*+*+*+*+*+*+*+*+*+*+*+*+*+*+*+*+*+*+*+*+*+*+*+*+*+*+*+*+*+*+*+*+*+*+*+*+*+*+
            BAR SHORTENED BY       1.000 PERCENT
 GRADIENT CRITERION IN FLEPO =     2.000


          FOR POINT   72 FIRST  STRUCTURE
 DISTANCE A - B      0.502423
 HEAT               -4.620157
 GRADIENT NORM     136.786461
 DIRECTION COSINE    0.999996
 GEO-OK PM7 PRECISE
 Tranzitny stav H2 + F2

  H(          1          X    )   0.00000000 +0    0.0000000 +0    0.0000000 +0
  H(          2          X    )   0.78894128 +1    0.0000000 +0    0.0000000 +0     1     0     0
  F(          3          X    )   1.68339225 +1  101.6167137 +1    0.0000000 +0     1     2     0
  F(          4          X    )   1.46568872 +1   78.3353231 +1    0.1818601 +1     3     1     2
 
 *+*+*+*+*+*+*+*+*+*+*+*+*+*+*+*+*+*+*+*+*+*+*+*+*+*+*+*+*+*+*+*+*+*+*+*+*+*+*+*+
            BAR SHORTENED BY       1.000 PERCENT
 GRADIENT CRITERION IN FLEPO =     2.000


          FOR POINT   73 FIRST  STRUCTURE
 DISTANCE A - B      0.497399
 HEAT               -3.928542
 GRADIENT NORM     138.664066
 DIRECTION COSINE    0.999994
 GEO-OK PM7 PRECISE
 Tranzitny stav H2 + F2

  H(          1          X    )   0.00000000 +0    0.0000000 +0    0.0000000 +0
  H(          2          X    )   0.78958153 +1    0.0000000 +0    0.0000000 +0     1     0     0
  F(          3          X    )   1.67848106 +1  101.6271717 +1    0.0000000 +0     1     2     0
  F(          4          X    )   1.46683147 +1   78.2914200 +1    0.1822630 +1     3     1     2
 
 TIME=     0.02
  REACTANTS AND PRODUCTS SWAPPED AROUND
 *+*+*+*+*+*+*+*+*+*+*+*+*+*+*+*+*+*+*+*+*+*+*+*+*+*+*+*+*+*+*+*+*+*+*+*+*+*+*+*+
            BAR SHORTENED BY       1.000 PERCENT
 GRADIENT CRITERION IN FLEPO =     2.000


          FOR POINT   74 SECOND STRUCTURE
 DISTANCE A - B      0.492425
 HEAT               -3.250890
 GRADIENT NORM     249.684450
 DIRECTION COSINE    0.999986
 GEO-OK PM7 PRECISE
 Tranzitny stav H2 + F2

  H(          1          X    )   0.00000000 +0    0.0000000 +0    0.0000000 +0
  H(          2          X    )   0.99634509 +1    0.0000000 +0    0.0000000 +0     1     0     0
  F(          3          X    )   1.27979471 +1  107.3490646 +1    0.0000000 +0     1     2     0
  F(          4          X    )   1.27827352 +1  107.3677588 +1   -0.1260220 +1     2     1     3
 
 TIME=     0.01
  REACTANTS AND PRODUCTS SWAPPED AROUND
 *+*+*+*+*+*+*+*+*+*+*+*+*+*+*+*+*+*+*+*+*+*+*+*+*+*+*+*+*+*+*+*+*+*+*+*+*+*+*+*+
            BAR SHORTENED BY       1.000 PERCENT
 GRADIENT CRITERION IN FLEPO =     2.000


          FOR POINT   75 FIRST  STRUCTURE
 DISTANCE A - B      0.487500
 HEAT               -3.241465
 GRADIENT NORM     140.512365
 DIRECTION COSINE    0.999993
 GEO-OK PM7 PRECISE
 Tranzitny stav H2 + F2

  H(          1          X    )   0.00000000 +0    0.0000000 +0    0.0000000 +0
  H(          2          X    )   0.78990723 +1    0.0000000 +0    0.0000000 +0     1     0     0
  F(          3          X    )   1.67326347 +1  101.6883600 +1    0.0000000 +0     1     2     0
  F(          4          X    )   1.46824477 +1   78.2533349 +1    0.1385218 +1     3     1     2
 
 TIME=     0.01
  REACTANTS AND PRODUCTS SWAPPED AROUND
 *+*+*+*+*+*+*+*+*+*+*+*+*+*+*+*+*+*+*+*+*+*+*+*+*+*+*+*+*+*+*+*+*+*+*+*+*+*+*+*+
            BAR SHORTENED BY       1.000 PERCENT
 GRADIENT CRITERION IN FLEPO =     2.000


          FOR POINT   76 SECOND STRUCTURE
 DISTANCE A - B      0.482625
 HEAT               -2.036881
 GRADIENT NORM     248.233223
 DIRECTION COSINE    0.999990
 GEO-OK PM7 PRECISE
 Tranzitny stav H2 + F2

  H(          1          X    )   0.00000000 +0    0.0000000 +0    0.0000000 +0
  H(          2          X    )   0.99146983 +1    0.0000000 +0    0.0000000 +0     1     0     0
  F(          3          X    )   1.28399070 +1  107.3880492 +1    0.0000000 +0     1     2     0
  F(          4          X    )   1.28341159 +1  107.3921570 +1   -0.1149669 +1     2     1     3
 
 TIME=     0.01
  REACTANTS AND PRODUCTS SWAPPED AROUND
 *+*+*+*+*+*+*+*+*+*+*+*+*+*+*+*+*+*+*+*+*+*+*+*+*+*+*+*+*+*+*+*+*+*+*+*+*+*+*+*+
            BAR SHORTENED BY       1.000 PERCENT
 GRADIENT CRITERION IN FLEPO =     2.000


          FOR POINT   77 FIRST  STRUCTURE
 DISTANCE A - B      0.477799
 HEAT               -2.558943
 GRADIENT NORM     142.370511
 DIRECTION COSINE    0.999998
 GEO-OK PM7 PRECISE
 Tranzitny stav H2 + F2

  H(          1          X    )   0.00000000 +0    0.0000000 +0    0.0000000 +0
  H(          2          X    )   0.79021748 +1    0.0000000 +0    0.0000000 +0     1     0     0
  F(          3          X    )   1.66818512 +1  101.7506671 +1    0.0000000 +0     1     2     0
  F(          4          X    )   1.46974155 +1   78.2142845 +1    0.1101137 +1     3     1     2
 
 *+*+*+*+*+*+*+*+*+*+*+*+*+*+*+*+*+*+*+*+*+*+*+*+*+*+*+*+*+*+*+*+*+*+*+*+*+*+*+*+
            BAR SHORTENED BY       1.000 PERCENT
 GRADIENT CRITERION IN FLEPO =     2.000


          FOR POINT   78 FIRST  STRUCTURE
 DISTANCE A - B      0.473021
 HEAT               -1.874146
 GRADIENT NORM     144.270559
 DIRECTION COSINE    0.999991
 GEO-OK PM7 PRECISE
 Tranzitny stav H2 + F2

  H(          1          X    )   0.00000000 +0    0.0000000 +0    0.0000000 +0
  H(          2          X    )   0.79090580 +1    0.0000000 +0    0.0000000 +0     1     0     0
  F(          3          X    )   1.66331922 +1  101.7944438 +1    0.0000000 +0     1     2     0
  F(          4          X    )   1.47101155 +1   78.1736900 +1    0.1163968 +1     3     1     2
 
 TIME=     0.02
  REACTANTS AND PRODUCTS SWAPPED AROUND
 *+*+*+*+*+*+*+*+*+*+*+*+*+*+*+*+*+*+*+*+*+*+*+*+*+*+*+*+*+*+*+*+*+*+*+*+*+*+*+*+
            BAR SHORTENED BY       1.000 PERCENT
 GRADIENT CRITERION IN FLEPO =     2.000


          FOR POINT   79 SECOND STRUCTURE
 DISTANCE A - B      0.468291
 HEAT               -0.865184
 GRADIENT NORM     247.089989
 DIRECTION COSINE    0.999992
 GEO-OK PM7 PRECISE
 Tranzitny stav H2 + F2

  H(          1          X    )   0.00000000 +0    0.0000000 +0    0.0000000 +0
  H(          2          X    )   0.98734567 +1    0.0000000 +0    0.0000000 +0     1     0     0
  F(          3          X    )   1.28804034 +1  107.4138063 +1    0.0000000 +0     1     2     0
  F(          4          X    )   1.28800401 +1  107.3792811 +1   -0.1130083 +1     2     1     3
 
 TIME=     0.01
  REACTANTS AND PRODUCTS SWAPPED AROUND
 *+*+*+*+*+*+*+*+*+*+*+*+*+*+*+*+*+*+*+*+*+*+*+*+*+*+*+*+*+*+*+*+*+*+*+*+*+*+*+*+
            BAR SHORTENED BY       1.000 PERCENT
 GRADIENT CRITERION IN FLEPO =     2.000


          FOR POINT   80 FIRST  STRUCTURE
 DISTANCE A - B      0.463608
 HEAT               -1.194365
 GRADIENT NORM     146.096841
 DIRECTION COSINE    0.999993
 GEO-OK PM7 PRECISE
 Tranzitny stav H2 + F2

  H(          1          X    )   0.00000000 +0    0.0000000 +0    0.0000000 +0
  H(          2          X    )   0.79127291 +1    0.0000000 +0    0.0000000 +0     1     0     0
  F(          3          X    )   1.65846283 +1  101.8553651 +1    0.0000000 +0     1     2     0
  F(          4          X    )   1.47246158 +1   78.1300915 +1    0.1054613 +1     3     1     2
 
 *+*+*+*+*+*+*+*+*+*+*+*+*+*+*+*+*+*+*+*+*+*+*+*+*+*+*+*+*+*+*+*+*+*+*+*+*+*+*+*+
            BAR SHORTENED BY       1.000 PERCENT
 GRADIENT CRITERION IN FLEPO =     2.000


          FOR POINT   81 FIRST  STRUCTURE
 DISTANCE A - B      0.458972
 HEAT               -0.512707
 GRADIENT NORM     147.971257
 DIRECTION COSINE    0.999992
 GEO-OK PM7 PRECISE
 Tranzitny stav H2 + F2

  H(          1          X    )   0.00000000 +0    0.0000000 +0    0.0000000 +0
  H(          2          X    )   0.79195513 +1    0.0000000 +0    0.0000000 +0     1     0     0
  F(          3          X    )   1.65378252 +1  101.9011109 +1    0.0000000 +0     1     2     0
  F(          4          X    )   1.47375688 +1   78.0866222 +1    0.1108701 +1     3     1     2
 
 TIME=     0.01
  REACTANTS AND PRODUCTS SWAPPED AROUND
 *+*+*+*+*+*+*+*+*+*+*+*+*+*+*+*+*+*+*+*+*+*+*+*+*+*+*+*+*+*+*+*+*+*+*+*+*+*+*+*+
            BAR SHORTENED BY       1.000 PERCENT
 GRADIENT CRITERION IN FLEPO =     2.000


          FOR POINT   82 SECOND STRUCTURE
 DISTANCE A - B      0.454382
 HEAT                0.266074
 GRADIENT NORM     245.987440
 DIRECTION COSINE    0.999991
 GEO-OK PM7 PRECISE
 Tranzitny stav H2 + F2

  H(          1          X    )   0.00000000 +0    0.0000000 +0    0.0000000 +0
  H(          2          X    )   0.98269449 +1    0.0000000 +0    0.0000000 +0     1     0     0
  F(          3          X    )   1.29184001 +1  107.4426342 +1    0.0000000 +0     1     2     0
  F(          4          X    )   1.29227515 +1  107.3873671 +1   -0.1127828 +1     2     1     3
 
 TIME=     0.02
  REACTANTS AND PRODUCTS SWAPPED AROUND
 *+*+*+*+*+*+*+*+*+*+*+*+*+*+*+*+*+*+*+*+*+*+*+*+*+*+*+*+*+*+*+*+*+*+*+*+*+*+*+*+
            BAR SHORTENED BY       1.000 PERCENT
 GRADIENT CRITERION IN FLEPO =     2.000


          FOR POINT   83 FIRST  STRUCTURE
 DISTANCE A - B      0.449838
 HEAT                0.163385
 GRADIENT NORM     149.728777
 DIRECTION COSINE    0.999995
 GEO-OK PM7 PRECISE
 Tranzitny stav H2 + F2

  H(          1          X    )   0.00000000 +0    0.0000000 +0    0.0000000 +0
  H(          2          X    )   0.79223414 +1    0.0000000 +0    0.0000000 +0     1     0     0
  F(          3          X    )   1.64909445 +1  101.9635189 +1    0.0000000 +0     1     2     0
  F(          4          X    )   1.47521305 +1   78.0395926 +1    0.1042923 +1     3     1     2
 
 *+*+*+*+*+*+*+*+*+*+*+*+*+*+*+*+*+*+*+*+*+*+*+*+*+*+*+*+*+*+*+*+*+*+*+*+*+*+*+*+
            BAR SHORTENED BY       1.000 PERCENT
 GRADIENT CRITERION IN FLEPO =     2.000


          FOR POINT   84 FIRST  STRUCTURE
 DISTANCE A - B      0.445340
 HEAT                0.841061
 GRADIENT NORM     151.579178
 DIRECTION COSINE    0.999992
 GEO-OK PM7 PRECISE
 Tranzitny stav H2 + F2

  H(          1          X    )   0.00000000 +0    0.0000000 +0    0.0000000 +0
  H(          2          X    )   0.79291334 +1    0.0000000 +0    0.0000000 +0     1     0     0
  F(          3          X    )   1.64459551 +1  102.0089475 +1    0.0000000 +0     1     2     0
  F(          4          X    )   1.47653835 +1   77.9948756 +1    0.1086564 +1     3     1     2
 
 TIME=     0.02
  REACTANTS AND PRODUCTS SWAPPED AROUND
 *+*+*+*+*+*+*+*+*+*+*+*+*+*+*+*+*+*+*+*+*+*+*+*+*+*+*+*+*+*+*+*+*+*+*+*+*+*+*+*+
            BAR SHORTENED BY       1.000 PERCENT
 GRADIENT CRITERION IN FLEPO =     2.000


          FOR POINT   85 SECOND STRUCTURE
 DISTANCE A - B      0.440887
 HEAT                1.359030
 GRADIENT NORM     244.874598
 DIRECTION COSINE    0.999992
 GEO-OK PM7 PRECISE
 Tranzitny stav H2 + F2

  H(          1          X    )   0.00000000 +0    0.0000000 +0    0.0000000 +0
  H(          2          X    )   0.97844827 +1    0.0000000 +0    0.0000000 +0     1     0     0
  F(          3          X    )   1.29565185 +1  107.4642173 +1    0.0000000 +0     1     2     0
  F(          4          X    )   1.29648924 +1  107.3925142 +1   -0.1083777 +1     2     1     3
 
 TIME=     0.00
  REACTANTS AND PRODUCTS SWAPPED AROUND
 *+*+*+*+*+*+*+*+*+*+*+*+*+*+*+*+*+*+*+*+*+*+*+*+*+*+*+*+*+*+*+*+*+*+*+*+*+*+*+*+
            BAR SHORTENED BY       1.000 PERCENT
 GRADIENT CRITERION IN FLEPO =     2.000


          FOR POINT   86 FIRST  STRUCTURE
 DISTANCE A - B      0.436478
 HEAT                1.513051
 GRADIENT NORM     153.342523
 DIRECTION COSINE    0.999994
 GEO-OK PM7 PRECISE
 Tranzitny stav H2 + F2

  H(          1          X    )   0.00000000 +0    0.0000000 +0    0.0000000 +0
  H(          2          X    )   0.79321934 +1    0.0000000 +0    0.0000000 +0     1     0     0
  F(          3          X    )   1.64009946 +1  102.0705758 +1    0.0000000 +0     1     2     0
  F(          4          X    )   1.47806734 +1   77.9476439 +1    0.1020486 +1     3     1     2
 
 TIME=     0.02
  REACTANTS AND PRODUCTS SWAPPED AROUND
 *+*+*+*+*+*+*+*+*+*+*+*+*+*+*+*+*+*+*+*+*+*+*+*+*+*+*+*+*+*+*+*+*+*+*+*+*+*+*+*+
            BAR SHORTENED BY       1.000 PERCENT
 GRADIENT CRITERION IN FLEPO =     2.000


          FOR POINT   87 SECOND STRUCTURE
 DISTANCE A - B      0.432113
 HEAT                2.425386
 GRADIENT NORM     243.560401
 DIRECTION COSINE    0.999992
 GEO-OK PM7 PRECISE
 Tranzitny stav H2 + F2

  H(          1          X    )   0.00000000 +0    0.0000000 +0    0.0000000 +0
  H(          2          X    )   0.97461514 +1    0.0000000 +0    0.0000000 +0     1     0     0
  F(          3          X    )   1.29966067 +1  107.4725147 +1    0.0000000 +0     1     2     0
  F(          4          X    )   1.30095675 +1  107.4108258 +1   -0.0903327 +1     2     1     3
 
 TIME=     0.01
  REACTANTS AND PRODUCTS SWAPPED AROUND
 *+*+*+*+*+*+*+*+*+*+*+*+*+*+*+*+*+*+*+*+*+*+*+*+*+*+*+*+*+*+*+*+*+*+*+*+*+*+*+*+
            BAR SHORTENED BY       1.000 PERCENT
 GRADIENT CRITERION IN FLEPO =     2.000


          FOR POINT   88 FIRST  STRUCTURE
 DISTANCE A - B      0.427792
 HEAT                2.179551
 GRADIENT NORM     155.173705
 DIRECTION COSINE    0.999996
 GEO-OK PM7 PRECISE
 Tranzitny stav H2 + F2

  H(          1          X    )   0.00000000 +0    0.0000000 +0    0.0000000 +0
  H(          2          X    )   0.79359293 +1    0.0000000 +0    0.0000000 +0     1     0     0
  F(          3          X    )   1.63576483 +1  102.1283380 +1    0.0000000 +0     1     2     0
  F(          4          X    )   1.47974836 +1   77.9035923 +1    0.0723820 +1     3     1     2
 
 *+*+*+*+*+*+*+*+*+*+*+*+*+*+*+*+*+*+*+*+*+*+*+*+*+*+*+*+*+*+*+*+*+*+*+*+*+*+*+*+
            BAR SHORTENED BY       1.000 PERCENT
 GRADIENT CRITERION IN FLEPO =     2.000


          FOR POINT   89 FIRST  STRUCTURE
 DISTANCE A - B      0.423514
 HEAT                2.847235
 GRADIENT NORM     156.982647
 DIRECTION COSINE    0.999992
 GEO-OK PM7 PRECISE
 Tranzitny stav H2 + F2

  H(          1          X    )   0.00000000 +0    0.0000000 +0    0.0000000 +0
  H(          2          X    )   0.79426338 +1    0.0000000 +0    0.0000000 +0     1     0     0
  F(          3          X    )   1.63154269 +1  102.1698493 +1    0.0000000 +0     1     2     0
  F(          4          X    )   1.48112911 +1   77.8600454 +1    0.0853014 +1     3     1     2
 
 TIME=     0.01
  REACTANTS AND PRODUCTS SWAPPED AROUND
 *+*+*+*+*+*+*+*+*+*+*+*+*+*+*+*+*+*+*+*+*+*+*+*+*+*+*+*+*+*+*+*+*+*+*+*+*+*+*+*+
            BAR SHORTENED BY       1.000 PERCENT
 GRADIENT CRITERION IN FLEPO =     2.000


          FOR POINT   90 SECOND STRUCTURE
 DISTANCE A - B      0.419279
 HEAT                3.454787
 GRADIENT NORM     242.494574
 DIRECTION COSINE    0.999992
 GEO-OK PM7 PRECISE
 Tranzitny stav H2 + F2

  H(          1          X    )   0.00000000 +0    0.0000000 +0    0.0000000 +0
  H(          2          X    )   0.97076798 +1    0.0000000 +0    0.0000000 +0     1     0     0
  F(          3          X    )   1.30335929 +1  107.4912585 +1    0.0000000 +0     1     2     0
  F(          4          X    )   1.30495181 +1  107.4073974 +1   -0.0805909 +1     2     1     3
 
 TIME=     0.01
  REACTANTS AND PRODUCTS SWAPPED AROUND
 *+*+*+*+*+*+*+*+*+*+*+*+*+*+*+*+*+*+*+*+*+*+*+*+*+*+*+*+*+*+*+*+*+*+*+*+*+*+*+*+
            BAR SHORTENED BY       1.000 PERCENT
 GRADIENT CRITERION IN FLEPO =     2.000


          FOR POINT   91 FIRST  STRUCTURE
 DISTANCE A - B      0.415086
 HEAT                3.508947
 GRADIENT NORM     158.727743
 DIRECTION COSINE    0.999993
 GEO-OK PM7 PRECISE
 Tranzitny stav H2 + F2

  H(          1          X    )   0.00000000 +0    0.0000000 +0    0.0000000 +0
  H(          2          X    )   0.79458926 +1    0.0000000 +0    0.0000000 +0     1     0     0
  F(          3          X    )   1.62735527 +1  102.2299053 +1    0.0000000 +0     1     2     0
  F(          4          X    )   1.48274549 +1   77.8116498 +1    0.0820003 +1     3     1     2
 
 TIME=     0.02
  REACTANTS AND PRODUCTS SWAPPED AROUND
 *+*+*+*+*+*+*+*+*+*+*+*+*+*+*+*+*+*+*+*+*+*+*+*+*+*+*+*+*+*+*+*+*+*+*+*+*+*+*+*+
            BAR SHORTENED BY       1.000 PERCENT
 GRADIENT CRITERION IN FLEPO =     2.000


          FOR POINT   92 SECOND STRUCTURE
 DISTANCE A - B      0.410935
 HEAT                4.459080
 GRADIENT NORM     241.219447
 DIRECTION COSINE    0.999991
 GEO-OK PM7 PRECISE
 Tranzitny stav H2 + F2

  H(          1          X    )   0.00000000 +0    0.0000000 +0    0.0000000 +0
  H(          2          X    )   0.96712738 +1    0.0000000 +0    0.0000000 +0     1     0     0
  F(          3          X    )   1.30720162 +1  107.4991653 +1    0.0000000 +0     1     2     0
  F(          4          X    )   1.30919281 +1  107.4230402 +1   -0.0727615 +1     2     1     3
 
 TIME=     0.01
  REACTANTS AND PRODUCTS SWAPPED AROUND
 *+*+*+*+*+*+*+*+*+*+*+*+*+*+*+*+*+*+*+*+*+*+*+*+*+*+*+*+*+*+*+*+*+*+*+*+*+*+*+*+
            BAR SHORTENED BY       1.000 PERCENT
 GRADIENT CRITERION IN FLEPO =     2.000


          FOR POINT   93 FIRST  STRUCTURE
 DISTANCE A - B      0.406826
 HEAT                4.164825
 GRADIENT NORM     160.520652
 DIRECTION COSINE    0.999996
 GEO-OK PM7 PRECISE
 Tranzitny stav H2 + F2

  H(          1          X    )   0.00000000 +0    0.0000000 +0    0.0000000 +0
  H(          2          X    )   0.79494894 +1    0.0000000 +0    0.0000000 +0     1     0     0
  F(          3          X    )   1.62331329 +1  102.2875558 +1    0.0000000 +0     1     2     0
  F(          4          X    )   1.48450627 +1   77.7658598 +1    0.0500434 +1     3     1     2
 
 *+*+*+*+*+*+*+*+*+*+*+*+*+*+*+*+*+*+*+*+*+*+*+*+*+*+*+*+*+*+*+*+*+*+*+*+*+*+*+*+
            BAR SHORTENED BY       1.000 PERCENT
 GRADIENT CRITERION IN FLEPO =     2.000


          FOR POINT   94 FIRST  STRUCTURE
 DISTANCE A - B      0.402758
 HEAT                4.821438
 GRADIENT NORM     162.283761
 DIRECTION COSINE    0.999993
 GEO-OK PM7 PRECISE
 Tranzitny stav H2 + F2

  H(          1          X    )   0.00000000 +0    0.0000000 +0    0.0000000 +0
  H(          2          X    )   0.79561488 +1    0.0000000 +0    0.0000000 +0     1     0     0
  F(          3          X    )   1.61935837 +1  102.3284713 +1    0.0000000 +0     1     2     0
  F(          4          X    )   1.48593542 +1   77.7216402 +1    0.0668605 +1     3     1     2
 
 TIME=     0.01
  REACTANTS AND PRODUCTS SWAPPED AROUND
 *+*+*+*+*+*+*+*+*+*+*+*+*+*+*+*+*+*+*+*+*+*+*+*+*+*+*+*+*+*+*+*+*+*+*+*+*+*+*+*+
            BAR SHORTENED BY       1.000 PERCENT
 GRADIENT CRITERION IN FLEPO =     2.000


          FOR POINT   95 SECOND STRUCTURE
 DISTANCE A - B      0.398730
 HEAT                5.428710
 GRADIENT NORM     240.171480
 DIRECTION COSINE    0.999992
 GEO-OK PM7 PRECISE
 Tranzitny stav H2 + F2

  H(          1          X    )   0.00000000 +0    0.0000000 +0    0.0000000 +0
  H(          2          X    )   0.96354081 +1    0.0000000 +0    0.0000000 +0     1     0     0
  F(          3          X    )   1.31078633 +1  107.5152170 +1    0.0000000 +0     1     2     0
  F(          4          X    )   1.31301485 +1  107.4188474 +1   -0.0643012 +1     2     1     3
 
 TIME=     0.02
  REACTANTS AND PRODUCTS SWAPPED AROUND
 *+*+*+*+*+*+*+*+*+*+*+*+*+*+*+*+*+*+*+*+*+*+*+*+*+*+*+*+*+*+*+*+*+*+*+*+*+*+*+*+
            BAR SHORTENED BY       1.000 PERCENT
 GRADIENT CRITERION IN FLEPO =     2.000


          FOR POINT   96 FIRST  STRUCTURE
 DISTANCE A - B      0.394743
 HEAT                5.471798
 GRADIENT NORM     164.003959
 DIRECTION COSINE    0.999992
 GEO-OK PM7 PRECISE
 Tranzitny stav H2 + F2

  H(          1          X    )   0.00000000 +0    0.0000000 +0    0.0000000 +0
  H(          2          X    )   0.79595091 +1    0.0000000 +0    0.0000000 +0     1     0     0
  F(          3          X    )   1.61545584 +1  102.3886255 +1    0.0000000 +0     1     2     0
  F(          4          X    )   1.48764425 +1   77.6724007 +1    0.0624110 +1     3     1     2
 
 TIME=     0.00
  REACTANTS AND PRODUCTS SWAPPED AROUND
 *+*+*+*+*+*+*+*+*+*+*+*+*+*+*+*+*+*+*+*+*+*+*+*+*+*+*+*+*+*+*+*+*+*+*+*+*+*+*+*+
[...]
  F(          4          X    )   1.47274317 +1  107.6751830 +1   -0.0729155 +1     2     1     3
 
 TIME=     0.01
  REACTANTS AND PRODUCTS SWAPPED AROUND
 *+*+*+*+*+*+*+*+*+*+*+*+*+*+*+*+*+*+*+*+*+*+*+*+*+*+*+*+*+*+*+*+*+*+*+*+*+*+*+*+
            BAR SHORTENED BY       1.000 PERCENT
 GRADIENT CRITERION IN FLEPO =     2.000


          FOR POINT  215 FIRST  STRUCTURE
 DISTANCE A - B      0.119372
 HEAT               33.889200
 GRADIENT NORM     223.307510
 DIRECTION COSINE    0.999928
 GEO-OK PM7 PRECISE
 Tranzitny stav H2 + F2

  H(          1          X    )   0.00000000 +0    0.0000000 +0    0.0000000 +0
  H(          2          X    )   0.80969396 +1    0.0000000 +0    0.0000000 +0     1     0     0
  F(          3          X    )   1.53105464 +1  105.6082963 +1    0.0000000 +0     1     2     0
  F(          4          X    )   1.54217033 +1  105.7462111 +1   -0.0703905 +1     2     1     3
 
 TIME=     0.01
  REACTANTS AND PRODUCTS SWAPPED AROUND
 *+*+*+*+*+*+*+*+*+*+*+*+*+*+*+*+*+*+*+*+*+*+*+*+*+*+*+*+*+*+*+*+*+*+*+*+*+*+*+*+
            BAR SHORTENED BY       1.000 PERCENT
 GRADIENT CRITERION IN FLEPO =     2.000


          FOR POINT  216 SECOND STRUCTURE
 DISTANCE A - B      0.118178
 HEAT               33.953938
 GRADIENT NORM     182.369314
 DIRECTION COSINE    0.999925
 GEO-OK PM7 PRECISE
 Tranzitny stav H2 + F2

  H(          1          X    )   0.00000000 +0    0.0000000 +0    0.0000000 +0
  H(          2          X    )   0.86060579 +1    0.0000000 +0    0.0000000 +0     1     0     0
  F(          3          X    )   1.46120474 +1  107.6301057 +1    0.0000000 +0     1     2     0
  F(          4          X    )   1.47514885 +1  107.6907691 +1   -0.0757037 +1     2     1     3
 
 TIME=     0.02
  REACTANTS AND PRODUCTS SWAPPED AROUND
 *+*+*+*+*+*+*+*+*+*+*+*+*+*+*+*+*+*+*+*+*+*+*+*+*+*+*+*+*+*+*+*+*+*+*+*+*+*+*+*+
            BAR SHORTENED BY       1.000 PERCENT
 GRADIENT CRITERION IN FLEPO =     2.000


          FOR POINT  217 FIRST  STRUCTURE
 DISTANCE A - B      0.116996
 HEAT               34.150782
 GRADIENT NORM     223.268312
 DIRECTION COSINE    0.999943
 GEO-OK PM7 PRECISE
 Tranzitny stav H2 + F2

  H(          1          X    )   0.00000000 +0    0.0000000 +0    0.0000000 +0
  H(          2          X    )   0.80956119 +1    0.0000000 +0    0.0000000 +0     1     0     0
  F(          3          X    )   1.53132897 +1  105.6624608 +1    0.0000000 +0     1     2     0
  F(          4          X    )   1.54293133 +1  105.7936548 +1   -0.0724689 +1     2     1     3
 
 TIME=     0.00
  REACTANTS AND PRODUCTS SWAPPED AROUND
 *+*+*+*+*+*+*+*+*+*+*+*+*+*+*+*+*+*+*+*+*+*+*+*+*+*+*+*+*+*+*+*+*+*+*+*+*+*+*+*+
            BAR SHORTENED BY       1.000 PERCENT
 GRADIENT CRITERION IN FLEPO =     2.000


          FOR POINT  218 SECOND STRUCTURE
 DISTANCE A - B      0.115826
 HEAT               34.165565
 GRADIENT NORM     181.368016
 DIRECTION COSINE    0.999935
 GEO-OK PM7 PRECISE
 Tranzitny stav H2 + F2

  H(          1          X    )   0.00000000 +0    0.0000000 +0    0.0000000 +0
  H(          2          X    )   0.85959853 +1    0.0000000 +0    0.0000000 +0     1     0     0
  F(          3          X    )   1.46301183 +1  107.6431488 +1    0.0000000 +0     1     2     0
  F(          4          X    )   1.47747771 +1  107.6973523 +1   -0.0772948 +1     2     1     3
 
 TIME=     0.01
  REACTANTS AND PRODUCTS SWAPPED AROUND
 *+*+*+*+*+*+*+*+*+*+*+*+*+*+*+*+*+*+*+*+*+*+*+*+*+*+*+*+*+*+*+*+*+*+*+*+*+*+*+*+
            BAR SHORTENED BY       1.000 PERCENT
 GRADIENT CRITERION IN FLEPO =     2.000


          FOR POINT  219 FIRST  STRUCTURE
 DISTANCE A - B      0.114668
 HEAT               34.407310
 GRADIENT NORM     223.261902
 DIRECTION COSINE    0.999947
 GEO-OK PM7 PRECISE
 Tranzitny stav H2 + F2

  H(          1          X    )   0.00000000 +0    0.0000000 +0    0.0000000 +0
  H(          2          X    )   0.80955171 +1    0.0000000 +0    0.0000000 +0     1     0     0
  F(          3          X    )   1.53162197 +1  105.7089919 +1    0.0000000 +0     1     2     0
  F(          4          X    )   1.54367112 +1  105.8410316 +1   -0.0738793 +1     2     1     3
 
 TIME=     0.01
  REACTANTS AND PRODUCTS SWAPPED AROUND
 *+*+*+*+*+*+*+*+*+*+*+*+*+*+*+*+*+*+*+*+*+*+*+*+*+*+*+*+*+*+*+*+*+*+*+*+*+*+*+*+
            BAR SHORTENED BY       1.000 PERCENT
 GRADIENT CRITERION IN FLEPO =     2.000


          FOR POINT  220 SECOND STRUCTURE
 DISTANCE A - B      0.113522
 HEAT               34.371892
 GRADIENT NORM     180.376254
 DIRECTION COSINE    0.999936
 GEO-OK PM7 PRECISE
 Tranzitny stav H2 + F2

  H(          1          X    )   0.00000000 +0    0.0000000 +0    0.0000000 +0
  H(          2          X    )   0.85870260 +1    0.0000000 +0    0.0000000 +0     1     0     0
  F(          3          X    )   1.46482324 +1  107.6489182 +1    0.0000000 +0     1     2     0
  F(          4          X    )   1.47975513 +1  107.7065795 +1   -0.0787652 +1     2     1     3
 
 *+*+*+*+*+*+*+*+*+*+*+*+*+*+*+*+*+*+*+*+*+*+*+*+*+*+*+*+*+*+*+*+*+*+*+*+*+*+*+*+
            BAR SHORTENED BY       1.000 PERCENT
 GRADIENT CRITERION IN FLEPO =     2.000


          FOR POINT  221 SECOND STRUCTURE
 DISTANCE A - B      0.112386
 HEAT               34.576855
 GRADIENT NORM     180.733755
 DIRECTION COSINE    0.999988
 GEO-OK PM7 PRECISE
 Tranzitny stav H2 + F2

  H(          1          X    )   0.00000000 +0    0.0000000 +0    0.0000000 +0
  H(          2          X    )   0.85821109 +1    0.0000000 +0    0.0000000 +0     1     0     0
  F(          3          X    )   1.46548275 +1  107.6286710 +1    0.0000000 +0     1     2     0
  F(          4          X    )   1.48038598 +1  107.6871068 +1   -0.0787140 +1     2     1     3
 
 TIME=     0.02
  REACTANTS AND PRODUCTS SWAPPED AROUND
 *+*+*+*+*+*+*+*+*+*+*+*+*+*+*+*+*+*+*+*+*+*+*+*+*+*+*+*+*+*+*+*+*+*+*+*+*+*+*+*+
            BAR SHORTENED BY       1.000 PERCENT
 GRADIENT CRITERION IN FLEPO =     2.000


          FOR POINT  222 FIRST  STRUCTURE
 DISTANCE A - B      0.111262
 HEAT               34.656211
 GRADIENT NORM     223.250402
 DIRECTION COSINE    0.999896
 GEO-OK PM7 PRECISE
 Tranzitny stav H2 + F2

  H(          1          X    )   0.00000000 +0    0.0000000 +0    0.0000000 +0
  H(          2          X    )   0.80957424 +1    0.0000000 +0    0.0000000 +0     1     0     0
  F(          3          X    )   1.53194402 +1  105.7500376 +1    0.0000000 +0     1     2     0
  F(          4          X    )   1.54439828 +1  105.8900023 +1   -0.0753538 +1     2     1     3
 
 TIME=     0.01
  REACTANTS AND PRODUCTS SWAPPED AROUND
 *+*+*+*+*+*+*+*+*+*+*+*+*+*+*+*+*+*+*+*+*+*+*+*+*+*+*+*+*+*+*+*+*+*+*+*+*+*+*+*+
            BAR SHORTENED BY       1.000 PERCENT
 GRADIENT CRITERION IN FLEPO =     2.000


          FOR POINT  223 SECOND STRUCTURE
 DISTANCE A - B      0.110150
 HEAT               34.775229
 GRADIENT NORM     179.333388
 DIRECTION COSINE    0.999887
 GEO-OK PM7 PRECISE
 Tranzitny stav H2 + F2

  H(          1          X    )   0.00000000 +0    0.0000000 +0    0.0000000 +0
  H(          2          X    )   0.85738417 +1    0.0000000 +0    0.0000000 +0     1     0     0
  F(          3          X    )   1.46767063 +1  107.6368276 +1    0.0000000 +0     1     2     0
  F(          4          X    )   1.48309050 +1  107.7026467 +1   -0.0801368 +1     2     1     3
 
 TIME=     0.01
  REACTANTS AND PRODUCTS SWAPPED AROUND
 *+*+*+*+*+*+*+*+*+*+*+*+*+*+*+*+*+*+*+*+*+*+*+*+*+*+*+*+*+*+*+*+*+*+*+*+*+*+*+*+
            BAR SHORTENED BY       1.000 PERCENT
 GRADIENT CRITERION IN FLEPO =     2.000


          FOR POINT  224 FIRST  STRUCTURE
 DISTANCE A - B      0.109048
 HEAT               34.898598
 GRADIENT NORM     223.220948
 DIRECTION COSINE    0.999904
 GEO-OK PM7 PRECISE
 Tranzitny stav H2 + F2

  H(          1          X    )   0.00000000 +0    0.0000000 +0    0.0000000 +0
  H(          2          X    )   0.80971230 +1    0.0000000 +0    0.0000000 +0     1     0     0
  F(          3          X    )   1.53273326 +1  105.7837442 +1    0.0000000 +0     1     2     0
  F(          4          X    )   1.54561013 +1  105.9516447 +1   -0.0772889 +1     2     1     3
 
 TIME=     0.00
  REACTANTS AND PRODUCTS SWAPPED AROUND
 *+*+*+*+*+*+*+*+*+*+*+*+*+*+*+*+*+*+*+*+*+*+*+*+*+*+*+*+*+*+*+*+*+*+*+*+*+*+*+*+
            BAR SHORTENED BY       1.000 PERCENT
 GRADIENT CRITERION IN FLEPO =     2.000


          FOR POINT  225 SECOND STRUCTURE
 DISTANCE A - B      0.107958
 HEAT               34.968129
 GRADIENT NORM     178.040201
 DIRECTION COSINE    0.999895
 GEO-OK PM7 PRECISE
 Tranzitny stav H2 + F2

  H(          1          X    )   0.00000000 +0    0.0000000 +0    0.0000000 +0
  H(          2          X    )   0.85655981 +1    0.0000000 +0    0.0000000 +0     1     0     0
  F(          3          X    )   1.46978790 +1  107.6318792 +1    0.0000000 +0     1     2     0
  F(          4          X    )   1.48562159 +1  107.7294580 +1   -0.0830431 +1     2     1     3
 
 TIME=     0.02
  REACTANTS AND PRODUCTS SWAPPED AROUND
 *+*+*+*+*+*+*+*+*+*+*+*+*+*+*+*+*+*+*+*+*+*+*+*+*+*+*+*+*+*+*+*+*+*+*+*+*+*+*+*+
            BAR SHORTENED BY       1.000 PERCENT
 GRADIENT CRITERION IN FLEPO =     2.000


          FOR POINT  226 FIRST  STRUCTURE
 DISTANCE A - B      0.106878
 HEAT               35.136517
 GRADIENT NORM     223.102815
 DIRECTION COSINE    0.999913
 GEO-OK PM7 PRECISE
 Tranzitny stav H2 + F2

  H(          1          X    )   0.00000000 +0    0.0000000 +0    0.0000000 +0
  H(          2          X    )   0.80963843 +1    0.0000000 +0    0.0000000 +0     1     0     0
  F(          3          X    )   1.53332198 +1  105.8233776 +1    0.0000000 +0     1     2     0
  F(          4          X    )   1.54661412 +1  106.0099997 +1   -0.0801624 +1     2     1     3
 
 TIME=     0.01
  REACTANTS AND PRODUCTS SWAPPED AROUND
 *+*+*+*+*+*+*+*+*+*+*+*+*+*+*+*+*+*+*+*+*+*+*+*+*+*+*+*+*+*+*+*+*+*+*+*+*+*+*+*+
            BAR SHORTENED BY       1.000 PERCENT
 GRADIENT CRITERION IN FLEPO =     2.000


          FOR POINT  227 SECOND STRUCTURE
 DISTANCE A - B      0.105809
 HEAT               35.156233
 GRADIENT NORM     176.949683
 DIRECTION COSINE    0.999910
 GEO-OK PM7 PRECISE
 Tranzitny stav H2 + F2

  H(          1          X    )   0.00000000 +0    0.0000000 +0    0.0000000 +0
  H(          2          X    )   0.85556831 +1    0.0000000 +0    0.0000000 +0     1     0     0
  F(          3          X    )   1.47164135 +1  107.6391671 +1    0.0000000 +0     1     2     0
  F(          4          X    )   1.48796850 +1  107.7476919 +1   -0.0857095 +1     2     1     3
 
 TIME=     0.01
  REACTANTS AND PRODUCTS SWAPPED AROUND
 *+*+*+*+*+*+*+*+*+*+*+*+*+*+*+*+*+*+*+*+*+*+*+*+*+*+*+*+*+*+*+*+*+*+*+*+*+*+*+*+
            BAR SHORTENED BY       1.000 PERCENT
 GRADIENT CRITERION IN FLEPO =     2.000


          FOR POINT  228 FIRST  STRUCTURE
 DISTANCE A - B      0.104751
 HEAT               35.369933
 GRADIENT NORM     222.960009
 DIRECTION COSINE    0.999928
 GEO-OK PM7 PRECISE
 Tranzitny stav H2 + F2

  H(          1          X    )   0.00000000 +0    0.0000000 +0    0.0000000 +0
  H(          2          X    )   0.80951043 +1    0.0000000 +0    0.0000000 +0     1     0     0
  F(          3          X    )   1.53373050 +1  105.8701940 +1    0.0000000 +0     1     2     0
  F(          4          X    )   1.54752947 +1  106.0583819 +1   -0.0823006 +1     2     1     3
 
 TIME=     0.00
  REACTANTS AND PRODUCTS SWAPPED AROUND
 *+*+*+*+*+*+*+*+*+*+*+*+*+*+*+*+*+*+*+*+*+*+*+*+*+*+*+*+*+*+*+*+*+*+*+*+*+*+*+*+
            BAR SHORTENED BY       1.000 PERCENT
 GRADIENT CRITERION IN FLEPO =     2.000


          FOR POINT  229 SECOND STRUCTURE
 DISTANCE A - B      0.103704
 HEAT               35.339729
 GRADIENT NORM     175.949532
 DIRECTION COSINE    0.999921
 GEO-OK PM7 PRECISE
 Tranzitny stav H2 + F2

  H(          1          X    )   0.00000000 +0    0.0000000 +0    0.0000000 +0
  H(          2          X    )   0.85464637 +1    0.0000000 +0    0.0000000 +0     1     0     0
  F(          3          X    )   1.47336316 +1  107.6488181 +1    0.0000000 +0     1     2     0
  F(          4          X    )   1.49023636 +1  107.7587623 +1   -0.0874505 +1     2     1     3
 
 *+*+*+*+*+*+*+*+*+*+*+*+*+*+*+*+*+*+*+*+*+*+*+*+*+*+*+*+*+*+*+*+*+*+*+*+*+*+*+*+
            BAR SHORTENED BY       1.000 PERCENT
 GRADIENT CRITERION IN FLEPO =     2.000


          FOR POINT  230 SECOND STRUCTURE
 DISTANCE A - B      0.102667
 HEAT               35.522366
 GRADIENT NORM     176.288375
 DIRECTION COSINE    0.999989
 GEO-OK PM7 PRECISE
 Tranzitny stav H2 + F2

  H(          1          X    )   0.00000000 +0    0.0000000 +0    0.0000000 +0
  H(          2          X    )   0.85419501 +1    0.0000000 +0    0.0000000 +0     1     0     0
  F(          3          X    )   1.47395973 +1  107.6303375 +1    0.0000000 +0     1     2     0
  F(          4          X    )   1.49080234 +1  107.7410908 +1   -0.0873966 +1     2     1     3
 
 TIME=     0.02
  REACTANTS AND PRODUCTS SWAPPED AROUND
 *+*+*+*+*+*+*+*+*+*+*+*+*+*+*+*+*+*+*+*+*+*+*+*+*+*+*+*+*+*+*+*+*+*+*+*+*+*+*+*+
            BAR SHORTENED BY       1.000 PERCENT
 GRADIENT CRITERION IN FLEPO =     2.000


          FOR POINT  231 FIRST  STRUCTURE
 DISTANCE A - B      0.101640
 HEAT               35.596468
 GRADIENT NORM     222.844695
 DIRECTION COSINE    0.999883
 GEO-OK PM7 PRECISE
 Tranzitny stav H2 + F2

  H(          1          X    )   0.00000000 +0    0.0000000 +0    0.0000000 +0
  H(          2          X    )   0.80947328 +1    0.0000000 +0    0.0000000 +0     1     0     0
  F(          3          X    )   1.53412020 +1  105.9111780 +1    0.0000000 +0     1     2     0
  F(          4          X    )   1.54840699 +1  106.1052020 +1   -0.0838108 +1     2     1     3
 
 TIME=     0.01
  REACTANTS AND PRODUCTS SWAPPED AROUND
 *+*+*+*+*+*+*+*+*+*+*+*+*+*+*+*+*+*+*+*+*+*+*+*+*+*+*+*+*+*+*+*+*+*+*+*+*+*+*+*+
            BAR SHORTENED BY       1.000 PERCENT
 GRADIENT CRITERION IN FLEPO =     2.000


          FOR POINT  232 SECOND STRUCTURE
 DISTANCE A - B      0.100624
 HEAT               35.698827
 GRADIENT NORM     174.941708
 DIRECTION COSINE    0.999875
 GEO-OK PM7 PRECISE
 Tranzitny stav H2 + F2

  H(          1          X    )   0.00000000 +0    0.0000000 +0    0.0000000 +0
  H(          2          X    )   0.85341892 +1    0.0000000 +0    0.0000000 +0     1     0     0
  F(          3          X    )   1.47601176 +1  107.6383613 +1    0.0000000 +0     1     2     0
  F(          4          X    )   1.49342647 +1  107.7567793 +1   -0.0887272 +1     2     1     3
 
 TIME=     0.01
  REACTANTS AND PRODUCTS SWAPPED AROUND
 *+*+*+*+*+*+*+*+*+*+*+*+*+*+*+*+*+*+*+*+*+*+*+*+*+*+*+*+*+*+*+*+*+*+*+*+*+*+*+*+
            BAR SHORTENED BY       1.000 PERCENT
 AT END OF STEPWISE ASCENT OF REACTION BARRIER

 -------------------------------------------------------------------------------
 GEO-OK PM7 PRECISE
 Tranzitny stav H2 + F2



     TRANSITION STATE LOCATED USING THE "SADDLE" TECHNIQUE    
     SCF FIELD WAS ACHIEVED                                   


                              PM7 CALCULATION
                                                       MOPAC v22.1.1 Windows
                                                       Mon Feb 19 21:08:57 2024




          FINAL H.O.F PLUS STRESS =         35.69883 KCAL/MOL =     149.36389 KJ/MOL
          FINAL STRESS            =          0.00000 KCAL/MOL =       0.00000 KJ/MOL
          FINAL HEAT OF FORMATION =         35.69883 KCAL/MOL =     149.36389 KJ/MOL
          TOTAL DISTORTION        =          0.00198 Angstroms
          AVERAGE DISTORTION      =          0.00049 Angstroms per atom (all atoms)
          RMS DISTORTION          =          0.00050 Angstroms per atom (all atoms)


          COSMO AREA              =         62.27 SQUARE ANGSTROMS
          COSMO VOLUME            =         42.59 CUBIC ANGSTROMS

          GRADIENT NORM           =         55.77189          =       27.88594 PER ATOM
          IONIZATION POTENTIAL    =         11.680477 EV
          HOMO LUMO ENERGIES (EV) =        -11.680 -3.408
          NO. OF FILLED LEVELS    =          8
          MOLECULAR WEIGHT        =         40.0126         POINT GROUP:  C2v 

          MOLECULAR DIMENSIONS (Angstroms)

            Atom       Atom       Distance
            F     4    H     1     1.93289
            F     3    H     2     1.90945
            H     1    F     3     0.00072


          SCF CALCULATIONS        =       1163
 
          WALL-CLOCK TIME         =      1.883 SECONDS
          COMPUTATION TIME        =      1.859 SECONDS



       FINAL  POINT  AND  DERIVATIVES

   PARAMETER     ATOM    TYPE            VALUE        GRADIENT
      1          1  H    CARTESIAN X    -5.018861     -3.109739  KCAL/ANGSTROM
      2          1  H    CARTESIAN Y     2.146422     38.772527  KCAL/ANGSTROM
      3          1  H    CARTESIAN Z     0.007419      2.607413  KCAL/ANGSTROM
      4          2  H    CARTESIAN X    -4.920514      8.698570  KCAL/ANGSTROM
      5          2  H    CARTESIAN Y     1.299142    -29.132060  KCAL/ANGSTROM
      6          2  H    CARTESIAN Z     0.011737      4.253993  KCAL/ANGSTROM
      7          3  F    CARTESIAN X    -3.672511      3.590330  KCAL/ANGSTROM
      8          3  F    CARTESIAN Y     2.752614    -15.897408  KCAL/ANGSTROM
      9          3  F    CARTESIAN Z    -0.006007     -2.970693  KCAL/ANGSTROM
     10          4  F    CARTESIAN X    -3.454643     -6.409707  KCAL/ANGSTROM
     11          4  F    CARTESIAN Y     1.010971     18.048495  KCAL/ANGSTROM
     12          4  F    CARTESIAN Z     0.000552      2.647957  KCAL/ANGSTROM




   ATOM                 CHEMICAL                   X               Y               Z
  NUMBER                 SYMBOL               (ANGSTROMS)     (ANGSTROMS)     (ANGSTROMS)
 
     1       H(          1          X    )   -5.01886112  *   2.14642161  *   0.00741857  *
     2       H(          2          X    )   -4.92051389  *   1.29914177  *   0.01173655  *
     3       F(          3          X    )   -3.67251138  *   2.75261353  *  -0.00600725  *
     4       F(          4          X    )   -3.45464268  *   1.01097141  *   0.00055168  *

                             CARTESIAN COORDINATES

   1    H       -5.018861122     2.146421610     0.007418570
   2    H       -4.920513885     1.299141767     0.011736548
   3    F       -3.672511382     2.752613526    -0.006007249
   4    F       -3.454642678     1.010971413     0.000551685


           Empirical Formula: H2 F2  =     4 atoms



      MOLECULAR POINT GROUP   :   C2v 


                  EIGENVALUES  
 -41.53941 -41.21936 -18.75169 -16.95442 -16.63482 -16.52907 -13.82671 -11.68048
  -3.40829   6.27341


              NET ATOMIC CHARGES AND DIPOLE CONTRIBUTIONS

  ATOM NO.   TYPE          CHARGE      No. of ELECS.   s-Pop       p-Pop       
    1          H          -0.005083        1.0051     1.00508
    2          H          -0.012572        1.0126     1.01257
    3          F          -0.003605        7.0036     1.99913     5.00447
    4          F           0.021260        6.9787     1.99914     4.97960
 DIPOLE           X         Y         Z       TOTAL
 POINT-CHG.     0.130    -0.075    -0.001     0.151
 HYBRID        -0.006     0.003     0.000     0.007
 SUM            0.124    -0.072    -0.001     0.144


          ATOMIC ORBITAL ELECTRON POPULATIONS

                  Atom                 s        px        py        pz   
   H(          1          X    )   1.00508
   H(          2          X    )   1.01257
   F(          3          X    )   1.99913   1.96925   1.03523   1.99999
   F(          4          X    )   1.99914   1.97126   1.00835   1.99999

 **********************
 *                    *
 * JOB ENDED NORMALLY *
 *                    *
 **********************



 TOTAL JOB TIME:             1.89 SECONDS

 == MOPAC DONE ==
