 *******************************************************************************
 **                                                                           **
 **                              MOPAC v22.1.0                                **
 **                                                                           **
 *******************************************************************************
 **          Digital Object Identifier (DOI): 10.5281/zenodo.6511958          **
 **    Visit the DOI location for information on how to cite this program.    **
 *******************************************************************************

                              PM7 CALCULATION RESULTS

 *******************************************************************************
 *  CALCULATION DONE:                                Thu Dec 28 23:07:00 2023  *
 *  PM7        - The PM7 Hamiltonian to be used
 *  SINGLET    - SPIN STATE DEFINED AS A SINGLET
 *
 *
 *
 *                 CHARGE ON SYSTEM = 0
 *
 *
 *
 *  PRECISE    - TIGHTER CRITERIA TO BE USED
 *  T=         - A TIME OF 172800.0 SECONDS REQUESTED
 *  DUMP=N     - RESTART FILE WRITTEN EVERY 7200.0 SECONDS REQUESTED
 *  AUX        - OUTPUT AUXILIARY INFORMATION
 *  LARGE      - EXPANDED OUTPUT TO BE PRINTED
 *******************************************************************************
 AUX LARGE CHARGE=0 SINGLET  PRECISE PM7
 oxid uhlicity

   ATOM   CHEMICAL          X               Y               Z
  NUMBER   SYMBOL      (ANGSTROMS)     (ANGSTROMS)     (ANGSTROMS)
 
     1       C         -4.24329000  *  -3.69889000  *   2.20121000  *
     2       O         -3.47095000  *  -3.01644000  *   1.59395000  *
     3       O         -5.01585000  *  -4.38151000  *   2.80805000  *
 


          CARTESIAN COORDINATES 

    NO.       ATOM           X           Y           Z

     1         C         -4.2433     -3.6989      2.2012
     2         O         -3.4710     -3.0164      1.5939
     3         O         -5.0159     -4.3815      2.8081

 General Reference for PM7:
 "Optimization of Parameters for Semiempirical Methods VI: More Modifications to the 
 NDDO Approximations and Re-optimization of Parameters", J. J. P. Stewart, J. Mol. Mod., 1:32, 19 (2013)
 https://link.springer.com/article/10.1007/s00894-012-1667-x

           Empirical Formula: C O2  =     3 atoms



      MOLECULAR POINT GROUP   :   D*h 


 SINGLET STATE CALCULATION


      RHF CALCULATION, NO. OF DOUBLY OCCUPIED LEVELS = 8


          Geometry optimization using EF

          DIAGONAL MATRIX USED AS START HESSIAN

 CYCLE:     1 TIME:   0.000 TIME LEFT:  2.00D  GRAD.:    94.979 HEAT: -82.57367
 CYCLE:     2 TIME:   0.008 TIME LEFT:  2.00D  GRAD.:    96.853 HEAT: -82.83984
 CYCLE:     3 TIME:   0.000 TIME LEFT:  2.00D  GRAD.:     6.763 HEAT: -84.50683
 CYCLE:     4 TIME:   0.000 TIME LEFT:  2.00D  GRAD.:     9.866 HEAT: -84.50753
 CYCLE:     5 TIME:   0.008 TIME LEFT:  2.00D  GRAD.:     5.629 HEAT: -84.51166
 CYCLE:     6 TIME:   0.008 TIME LEFT:  2.00D  GRAD.:     2.322 HEAT: -84.51480
 CYCLE:     7 TIME:   0.008 TIME LEFT:  2.00D  GRAD.:     1.212 HEAT: -84.51559
 CYCLE:     8 TIME:   0.000 TIME LEFT:  2.00D  GRAD.:     0.098 HEAT: -84.51572
 CYCLE:     9 TIME:   0.000 TIME LEFT:  2.00D  GRAD.:     0.008 HEAT: -84.51572

     GRADIENT =  0.00790 IS LESS THAN CUTOFF =  0.05000



 -------------------------------------------------------------------------------
 AUX LARGE CHARGE=0 SINGLET  PRECISE PM7
 oxid uhlicity



     GEOMETRY OPTIMISED USING EIGENVECTOR FOLLOWING (EF).     
     SCF FIELD WAS ACHIEVED                                   


                              PM7 CALCULATION
                                                       MOPAC v22.1.0 Windows
                                                       Thu Dec 28 23:07:01 2023




          FINAL HEAT OF FORMATION =        -84.51572 KCAL/MOL =    -353.61378 KJ/MOL


          COSMO AREA              =         65.56 SQUARE ANGSTROMS
          COSMO VOLUME            =         47.25 CUBIC ANGSTROMS

          GRADIENT NORM           =          0.00790          =       0.00456 PER ATOM
          IONIZATION POTENTIAL    =         12.759629 EV
          HOMO LUMO ENERGIES (EV) =        -12.760  0.547
          NO. OF FILLED LEVELS    =          8
          MOLECULAR WEIGHT        =         44.0098         POINT GROUP:  D*h 

          MOLECULAR DIMENSIONS (Angstroms)

            Atom       Atom       Distance
            O     3    O     2     2.33613
            C     1    O     2     0.00000
            O     2    C     1     0.00000


          SCF CALCULATIONS        =         13
 
          WALL-CLOCK TIME         =      0.070 SECONDS
          COMPUTATION TIME        =      0.078 SECONDS




   ATOM   CHEMICAL          X               Y               Z
  NUMBER   SYMBOL      (ANGSTROMS)     (ANGSTROMS)     (ANGSTROMS)
 
     1       C         -4.24336652  *  -3.69894917  *   2.20106502  *
     2       O         -3.48912342  *  -3.03250168  *   1.60832178  *
     3       O         -4.99761028  *  -4.36539705  *   2.79380384  *

                             CARTESIAN COORDINATES

   1    C       -4.243366519    -3.698949173     2.201065018
   2    O       -3.489123422    -3.032501684     1.608321776
   3    O       -4.997610280    -4.365397046     2.793803841


           Empirical Formula: C O2  =     3 atoms



      MOLECULAR POINT GROUP   :   D*h 


                  EIGENVALUES  
 -34.16562 -32.69416 -21.03603 -17.36699 -17.36699 -16.20305 -12.75963 -12.75963
   0.54704   0.54704   1.33494   4.68357


              NET ATOMIC CHARGES AND DIPOLE CONTRIBUTIONS

  ATOM NO.   TYPE          CHARGE      No. of ELECS.   s-Pop       p-Pop       
    1          C           0.646634        3.3534     1.10756     2.24580
    2          O          -0.323317        6.3233     1.87647     4.44685
    3          O          -0.323316        6.3233     1.87647     4.44685
 DIPOLE           X         Y         Z       TOTAL
 POINT-CHG.    -0.000    -0.000     0.000     0.000
 HYBRID        -0.000    -0.000     0.000     0.000
 SUM           -0.000    -0.000     0.000     0.000


          ATOMIC ORBITAL ELECTRON POPULATIONS

     Atom    s        px        py        pz   
    1  C   1.10756   0.75574   0.74794   0.74213
    2  O   1.87647   1.44274   1.48597   1.51814
    3  O   1.87647   1.44274   1.48597   1.51814
 *******************************************************************************
 **                                                                           **
 **                              MOPAC v22.1.0                                **
 **                                                                           **
 *******************************************************************************
 **          Digital Object Identifier (DOI): 10.5281/zenodo.6511958          **
 **    Visit the DOI location for information on how to cite this program.    **
 *******************************************************************************

                              PM7 CALCULATION RESULTS

 *******************************************************************************
 *  CALCULATION DONE:                                Thu Dec 28 23:07:01 2023  *
 *  PM7        - The PM7 Hamiltonian to be used
 *  OLDGEO     - PREVIOUS GEOMETRY TO BE USED
 *  PRECISE    - TIGHTER CRITERIA TO BE USED
 *  T=         - A TIME OF 172800.0 SECONDS REQUESTED
 *  DUMP=N     - RESTART FILE WRITTEN EVERY 7200.0 SECONDS REQUESTED
 *  THERMO     - THERMODYNAMIC QUANTITIES TO BE CALCULATED
 *******************************************************************************
OLDGEO PRECISE PM7 THERMO
 oxidu uhlicity

   ATOM   CHEMICAL          X               Y               Z
  NUMBER   SYMBOL      (ANGSTROMS)     (ANGSTROMS)     (ANGSTROMS)
 
     1       C         -4.24336652  *  -3.69894917  *   2.20106502  *
     2       O         -3.48912342  *  -3.03250168  *   1.60832178  *
     3       O         -4.99761028  *  -4.36539705  *   2.79380384  *
 


          CARTESIAN COORDINATES 

    NO.       ATOM           X           Y           Z

     1         C         -4.2434     -3.6989      2.2011
     2         O         -3.4891     -3.0325      1.6083
     3         O         -4.9976     -4.3654      2.7938

 General Reference for PM7:
 "Optimization of Parameters for Semiempirical Methods VI: More Modifications to the 
 NDDO Approximations and Re-optimization of Parameters", J. J. P. Stewart, J. Mol. Mod., 1:32, 19 (2013)
 https://link.springer.com/article/10.1007/s00894-012-1667-x

           Empirical Formula: C O2  =     3 atoms



      MOLECULAR POINT GROUP   :   D*h 


      RHF CALCULATION, NO. OF DOUBLY OCCUPIED LEVELS = 8



          HEAT OF FORMATION =     -84.515722 KCALS/MOLE


          CARTESIAN COORDINATE DERIVATIVES

   NUMBER  ATOM         X            Y            Z

     1       C     -0.003248    -0.000419     0.000000
     2       O      0.006597     0.000209    -0.000000
     3       O     -0.003350     0.000209    -0.000000
 


          GRADIENT NORM =   0.00810

          MOLECULAR WEIGHT =   44.01



          ROTATIONAL CONSTANTS IN CM(-1)

          A =    0.00000000   B =    0.38612527   C =    0.38612527



           PRINCIPAL MOMENTS OF INERTIA IN UNITS OF 10**(-40)*GRAM-CM**2

          A =        0.0000   B =       72.4966   C =       72.4966


          ORIENTATION OF MOLECULE IN FORCE CALCULATION

    NO.       ATOM         X         Y         Z

     1          C      -0.0000   -0.0000    0.0000
     2          O       1.1681   -0.0000    0.0000
     3          O      -1.1681    0.0000   -0.0000


    FIRST DERIVATIVES WILL BE USED IN THE CALCULATION OF SECOND DERIVATIVES

          ESTIMATED TIME TO COMPLETE CALCULATION =        0.28 SECONDS

    FOR POINT-GROUP D*h  THERE ARE 120 UNIQUE SYMMETRY FUNCTIONS.

 STEP:   1 TIME =     0.01 SECS, INTEGRAL =      0.01 TIME LEFT: 172799.98
 STEP:   2 TIME =     0.02 SECS, INTEGRAL =      0.02 TIME LEFT: 172799.97
 STEP:   3 TIME =     0.01 SECS, INTEGRAL =      0.03 TIME LEFT: 172799.96
 STEP:   4 TIME =     0.01 SECS, INTEGRAL =      0.04 TIME LEFT: 172799.95
 STEP:   5 TIME =     0.01 SECS, INTEGRAL =      0.05 TIME LEFT: 172799.95
 STEP:   6 TIME =     0.02 SECS, INTEGRAL =      0.06 TIME LEFT: 172799.93
 STEP:   7                       INTEGRAL =      0.06 TIME LEFT: 172799.93
 STEP:   8                       INTEGRAL =      0.06 TIME LEFT: 172799.93
 STEP:   9                       INTEGRAL =      0.06 TIME LEFT: 172799.93

(To convert to Hartree/Bohr^2, multiply by (10^(-21) x N x a0^2)/(4.184 x 627.51) =  0.0642)


           FORCE MATRIX IN MILLIDYNES/ANGSTROM


                  C  1       O  2       O  3
 ------------------------------------------
     C    1  28.374206
     O    2  14.187321  16.003981
     O    3  14.187189   1.906616  16.003981


          HEAT OF FORMATION =     -84.515722 KCALS/MOLE

          ZERO POINT ENERGY       6.803 KCAL/MOL


           NORMAL COORDINATE ANALYSIS (Total motion = 1 Angstrom)


   Root No.       1         2         3         4

                 1 Piu     1 Piu     1 Sig     1 Siu 

                 519.0     519.0    1375.6    2345.5
  
           1    0.0000   -0.0000   -0.0000    0.5712
           2    0.5711   -0.0087   -0.0000   -0.0000
           3    0.0087    0.5711   -0.0000    0.0000
           4   -0.0000    0.0000    0.5000   -0.2144
           5   -0.2144    0.0033   -0.0000   -0.0000
           6   -0.0033   -0.2144    0.0000   -0.0000
           7   -0.0000    0.0000   -0.5000   -0.2144
           8   -0.2144    0.0033    0.0000    0.0000
           9   -0.0033   -0.2144   -0.0000   -0.0000


           MASS-WEIGHTED COORDINATE ANALYSIS (NORMAL COORDINATES)


   Root No.       1         2         3         4

                 1 Piu     1 Piu     1 Sig     1 Siu 

                 519.0     519.0    1375.6    2345.5
  
           1    0.0000   -0.0000   -0.0000    0.8527
           2    0.8526   -0.0130   -0.0000   -0.0000
           3    0.0130    0.8526   -0.0000    0.0000
           4   -0.0000    0.0000    0.7071   -0.3694
           5   -0.3694    0.0056   -0.0000   -0.0000
           6   -0.0056   -0.3694    0.0000   -0.0000
           7   -0.0000    0.0000   -0.7071   -0.3694
           8   -0.3694    0.0056    0.0000    0.0000
           9   -0.0056   -0.3694   -0.0000   -0.0000


          DESCRIPTION OF VIBRATIONS


 VIBRATION          2    1Piu        ATOM PAIR     ENERGY CONTRIBUTION    RADIAL
 FREQUENCY           518.95         C 1 -- O 3         +50.0% ( 86.4%)      0.0%
 TRANSITION DIPOLE   1.8831         C 1 -- O 2         +50.0% ( 86.4%)      0.0%
 TRAVEL (Ang.)       0.1368
 REDUCED MASS        6.9455
 EFFECTIVE MASS     13.0429
 FORCE CONSTANT      1.1021

 VIBRATION          3    1Sig        ATOM PAIR     ENERGY CONTRIBUTION    RADIAL
 FREQUENCY          1375.64         C 1 -- O 2         +50.0% ( 67.0%)    100.0%
 TRANSITION DIPOLE   0.0000         C 1 -- O 3         +50.0% ( 67.0%)    100.0%
 TRAVEL (Ang.)       0.0783
 REDUCED MASS        7.9997
 EFFECTIVE MASS     15.9994
 FORCE CONSTANT      8.9194

 VIBRATION          4    1Siu        ATOM PAIR     ENERGY CONTRIBUTION    RADIAL
 FREQUENCY          2345.51         C 1 -- O 3         +50.0% ( 87.7%)    100.0%
 TRANSITION DIPOLE   7.4804         C 1 -- O 2         +50.0% ( 87.7%)    100.0%
 TRAVEL (Ang.)       0.0643
 REDUCED MASS        6.9455
 EFFECTIVE MASS     13.0429
 FORCE CONSTANT     22.5127

      SYMMETRY NUMBER FOR POINT-GROUP D*h =  2


          SYSTEM IS A GROUND STATE



 oxidu uhlicity


          MOLECULE IS LINEAR

          THERE ARE  4 GENUINE VIBRATIONS IN THIS SYSTEM
          THIS THERMODYNAMICS CALCULATION IS LIMITED TO
          MOLECULES WHICH HAVE NO INTERNAL ROTATIONS




                    CALCULATED THERMODYNAMIC PROPERTIES
                                          *
   TEMP. (K)   PARTITION FUNCTION   H.O.F.    ENTHALPY  HEAT CAPACITY ENTROPY
                                   KCAL/MOL   CAL/MOLE    CAL/K/MOL  CAL/K/MOL


 298.00  VIB.     0.1187D+01                   268.9875     2.5326     1.2437
         ROT.     0.2682D+03                   592.1869     1.9872    13.0991
         INT.     0.3184D+03                   861.1744     4.5198    14.3428
         TRA.     0.2823D+27                  1480.4672     4.9680    37.2692
         TOT.                      -84.516    2341.6416     9.4878    51.6121

 200.00  VIB.     0.1050D+01                    72.9021     1.4002     0.4608
         ROT.     0.1800D+03                   397.4409     1.9872    12.3067
         INT.     0.1889D+03                   470.3429     3.3874    12.7675
         TRA.     0.1552D+27                   993.6021     4.9680    35.2881
         TOT.                      -85.393    1463.9451     8.3554    48.0556

 210.00  VIB.     0.1060D+01                    87.5828     1.5352     0.5324
         ROT.     0.1890D+03                   417.3129     1.9872    12.4037
         INT.     0.2003D+03                   504.8957     3.5224    12.9361
         TRA.     0.1670D+27                  1043.2822     4.9680    35.5305
         TOT.                      -85.309    1548.1779     8.4904    48.4666

 220.00  VIB.     0.1071D+01                   103.5920     1.6658     0.6069
         ROT.     0.1980D+03                   437.1849     1.9872    12.4961
         INT.     0.2120D+03                   540.7769     3.6531    13.1030
         TRA.     0.1790D+27                  1092.9623     4.9680    35.7616
         TOT.                      -85.224    1633.7392     8.6211    48.8646

 230.00  VIB.     0.1083D+01                   120.8842     1.7918     0.6837
         ROT.     0.2070D+03                   457.0570     1.9872    12.5844
         INT.     0.2241D+03                   577.9412     3.7790    13.2681
         TRA.     0.1914D+27                  1142.6424     4.9680    35.9824
         TOT.                      -85.137    1720.5837     8.7470    49.2506

 240.00  VIB.     0.1096D+01                   139.4130     1.9131     0.7625
         ROT.     0.2160D+03                   476.9290     1.9872    12.6690
         INT.     0.2367D+03                   616.3420     3.9003    13.4316
         TRA.     0.2040D+27                  1192.3226     4.9680    36.1939
         TOT.                      -85.049    1808.6646     8.8684    49.6254

 250.00  VIB.     0.1110D+01                   159.1318     2.0299     0.8430
         ROT.     0.2250D+03                   496.8011     1.9872    12.7501
         INT.     0.2496D+03                   655.9329     4.0171    13.5932
         TRA.     0.2169D+27                  1242.0027     4.9680    36.3967
         TOT.                      -84.959    1897.9356     8.9851    49.9898

 260.00  VIB.     0.1124D+01                   179.9956     2.1422     0.9248
         ROT.     0.2340D+03                   516.6731     1.9872    12.8281
         INT.     0.2631D+03                   696.6687     4.1294    13.7529
         TRA.     0.2300D+27                  1291.6828     4.9680    36.5915
         TOT.                      -84.869    1988.3515     9.0974    50.3444

 270.00  VIB.     0.1140D+01                   201.9611     2.2503     1.0077
         ROT.     0.2430D+03                   536.5451     1.9872    12.9031
         INT.     0.2769D+03                   738.5063     4.2375    13.9108
         TRA.     0.2434D+27                  1341.3629     4.9680    36.7790
         TOT.                      -84.777    2079.8692     9.2055    50.6898

 280.00  VIB.     0.1156D+01                   224.9875     2.3544     1.0915
         ROT.     0.2520D+03                   556.4172     1.9872    12.9753
         INT.     0.2913D+03                   781.4047     4.3416    14.0668
         TRA.     0.2571D+27                  1391.0430     4.9680    36.9597
         TOT.                      -84.685    2172.4477     9.3096    51.0265

 290.00  VIB.     0.1173D+01                   249.0364     2.4548     1.1758
         ROT.     0.2610D+03                   576.2892     1.9872    13.0451
         INT.     0.3062D+03                   825.3256     4.4420    14.2209
         TRA.     0.2710D+27                  1440.7231     4.9680    37.1340
         TOT.                      -84.591    2266.0487     9.4100    51.3549

 300.00  VIB.     0.1191D+01                   274.0719     2.5518     1.2607
         ROT.     0.2700D+03                   596.1613     1.9872    13.1124
         INT.     0.3215D+03                   870.2332     4.5390    14.3731
         TRA.     0.2851D+27                  1490.4032     4.9680    37.3025
         TOT.                      -84.497    2360.6364     9.5070    51.6756

 310.00  VIB.     0.1209D+01                   300.0607     2.6455     1.3459
         ROT.     0.2790D+03                   616.0333     1.9872    13.1776
         INT.     0.3375D+03                   916.0940     4.6327    14.5235
         TRA.     0.2995D+27                  1540.0833     4.9680    37.4654
         TOT.                      -84.401    2456.1773     9.6007    51.9889

 320.00  VIB.     0.1229D+01                   326.9718     2.7363     1.4313
         ROT.     0.2880D+03                   635.9054     1.9872    13.2407
         INT.     0.3539D+03                   962.8772     4.7235    14.6720
         TRA.     0.3141D+27                  1589.7634     4.9680    37.6231
         TOT.                      -84.305    2552.6406     9.6915    52.2951

 330.00  VIB.     0.1249D+01                   354.7765     2.8242     1.5169
         ROT.     0.2970D+03                   655.7774     1.9872    13.3018
         INT.     0.3710D+03                  1010.5539     4.8115    14.8187
         TRA.     0.3289D+27                  1639.4435     4.9680    37.7760
         TOT.                      -84.207    2649.9975     9.7795    52.5947

 340.00  VIB.     0.1270D+01                   383.4482     2.9097     1.6025
         ROT.     0.3060D+03                   675.6494     1.9872    13.3612
         INT.     0.3886D+03                  1059.0977     4.8969    14.9636
         TRA.     0.3440D+27                  1689.1236     4.9680    37.9243
         TOT.                      -84.109    2748.2213     9.8649    52.8879

 350.00  VIB.     0.1291D+01                   412.9622     2.9927     1.6880
         ROT.     0.3150D+03                   695.5215     1.9872    13.4188
         INT.     0.4068D+03                  1108.4837     4.9799    15.1068
         TRA.     0.3593D+27                  1738.8037     4.9680    38.0683
         TOT.                      -84.010    2847.2874     9.9479    53.1751

 360.00  VIB.     0.1314D+01                   443.2955     3.0736     1.7735
         ROT.     0.3240D+03                   715.3935     1.9872    13.4747
         INT.     0.4256D+03                  1158.6890     5.0608    15.2482
         TRA.     0.3748D+27                  1788.4838     4.9680    38.2082
         TOT.                      -83.910    2947.1728    10.0288    53.4565

 370.00  VIB.     0.1337D+01                   474.4267     3.1523     1.8588
         ROT.     0.3330D+03                   735.2656     1.9872    13.5292
         INT.     0.4451D+03                  1209.6922     5.1395    15.3880
         TRA.     0.3905D+27                  1838.1639     4.9680    38.3444
         TOT.                      -83.810    3047.8562    10.1076    53.7323

 380.00  VIB.     0.1360D+01                   506.3359     3.2292     1.9439
         ROT.     0.3420D+03                   755.1376     1.9872    13.5822
         INT.     0.4652D+03                  1261.4735     5.2164    15.5261
         TRA.     0.4064D+27                  1887.8440     4.9680    38.4769
         TOT.                      -83.708    3149.3176    10.1844    54.0029

 390.00  VIB.     0.1385D+01                   539.0045     3.3042     2.0287
         ROT.     0.3510D+03                   775.0097     1.9872    13.6338
         INT.     0.4860D+03                  1314.0142     5.2914    15.6625
         TRA.     0.4226D+27                  1937.5242     4.9680    38.6059
         TOT.                      -83.606    3251.5383    10.2595    54.2684

 400.00  VIB.     0.1410D+01                   572.4151     3.3776     2.1133
         ROT.     0.3600D+03                   794.8817     1.9872    13.6841
         INT.     0.5075D+03                  1367.2968     5.3648    15.7974
         TRA.     0.4389D+27                  1987.2043     4.9680    38.7317
         TOT.                      -83.503    3354.5011    10.3328    54.5291

   *: NOTE: HEATS OF FORMATION ARE RELATIVE TO THE
            ELEMENTS IN THEIR STANDARD STATE AT 298K
              (=  Standard Enthalpy of Formation).

            Hvib:  Zero-point energy is not included.
                   frequencies of less than zero cm-1 are not included.
            Hrot = (3/2)RT
            Htra = (3/2)RT + pV = (5/2)RT

            Heat capacity is Cp, not Cv

          For more information, see: HTTP://OpenMOPAC.net/Manual/thermochemistry.html


           FORCE CONSTANT IN CARTESIAN COORDINATES (Millidynes/A)

    ATOM   CHEMICAL       X               Y               Z
   NUMBER   SYMBOL  FORCE CONSTANT  FORCE CONSTANT  FORCE CONSTANT

      1       C       28.306757        1.385709        1.385709
      2       O       15.996058        0.346649        0.346649
      3       O       15.996059        0.346649        0.346649

 **********************
 *                    *
 * JOB ENDED NORMALLY *
 *                    *
 **********************



 TOTAL JOB TIME:             0.22 SECONDS

 == MOPAC DONE ==
