 *******************************************************************************
 **                                                                           **
 **                              MOPAC v22.1.0                                **
 **                                                                           **
 *******************************************************************************
 **          Digital Object Identifier (DOI): 10.5281/zenodo.6511958          **
 **    Visit the DOI location for information on how to cite this program.    **
 *******************************************************************************

                              PM7 CALCULATION RESULTS

 *******************************************************************************
 *  CALCULATION DONE:                                Fri Jan 26 12:26:31 2024  *
 *  PM7        - The PM7 Hamiltonian to be used
 *  SINGLET    - SPIN STATE DEFINED AS A SINGLET
 *
 *
 *
 *                 CHARGE ON SYSTEM = +1
 *
 *
 *
 *  PRECISE    - TIGHTER CRITERIA TO BE USED
 *  T=         - A TIME OF 172800.0 SECONDS REQUESTED
 *  DUMP=N     - RESTART FILE WRITTEN EVERY 7200.0 SECONDS REQUESTED
 *  LARGE      - EXPANDED OUTPUT TO BE PRINTED
 *******************************************************************************
 PRECISE LARGE CHARGE=1 SINGLET  PM7
 amonium(+), PM7

   ATOM   CHEMICAL          X               Y               Z
  NUMBER   SYMBOL      (ANGSTROMS)     (ANGSTROMS)     (ANGSTROMS)
 
     1       N         -6.34271000  *   0.39328000  *   0.02713000  *
     2       H         -5.30373000  *   0.29072000  *  -0.00149000  *
     3       H         -6.65468000  *   0.99905000  *  -0.76440000  *
     4       H         -6.62452000  *   0.83100000  *   0.93256000  *
     5       H         -6.78791000  *  -0.54764000  *  -0.05813000  *
 


          CARTESIAN COORDINATES 

    NO.       ATOM           X           Y           Z

     1         N         -6.3427      0.3933      0.0271
     2         H         -5.3037      0.2907     -0.0015
     3         H         -6.6547      0.9990     -0.7644
     4         H         -6.6245      0.8310      0.9326
     5         H         -6.7879     -0.5476     -0.0581

 General Reference for PM7:
 "Optimization of Parameters for Semiempirical Methods VI: More Modifications to the 
 NDDO Approximations and Re-optimization of Parameters", J. J. P. Stewart, J. Mol. Mod., 1:32, 19 (2013)
 https://link.springer.com/article/10.1007/s00894-012-1667-x

           Empirical Formula: H4 N  =     5 atoms



      MOLECULAR POINT GROUP   :   Td  


 SINGLET STATE CALCULATION


      RHF CALCULATION, NO. OF DOUBLY OCCUPIED LEVELS = 4


          Geometry optimization using EF

          DIAGONAL MATRIX USED AS START HESSIAN

 CYCLE:     1 TIME:   0.008 TIME LEFT:  2.00D  GRAD.:    18.797 HEAT:  155.0961
 CYCLE:     2 TIME:   0.000 TIME LEFT:  2.00D  GRAD.:     6.459 HEAT:  154.8367
 CYCLE:     3 TIME:   0.008 TIME LEFT:  2.00D  GRAD.:     6.074 HEAT:  154.8218
 CYCLE:     4 TIME:   0.000 TIME LEFT:  2.00D  GRAD.:     5.865 HEAT:  154.8198
 CYCLE:     5 TIME:   0.004 TIME LEFT:  2.00D  GRAD.:     4.337 HEAT:  154.8136
 CYCLE:     6 TIME:   0.000 TIME LEFT:  2.00D  GRAD.:     0.958 HEAT:  154.8071
 CYCLE:     7 TIME:   0.008 TIME LEFT:  2.00D  GRAD.:     0.352 HEAT:  154.8066
 CYCLE:     8 TIME:   0.000 TIME LEFT:  2.00D  GRAD.:     0.178 HEAT:  154.8065
 CYCLE:     9 TIME:   0.000 TIME LEFT:  2.00D  GRAD.:     0.084 HEAT:  154.8065
 CYCLE:    10 TIME:   0.000 TIME LEFT:  2.00D  GRAD.:     0.007 HEAT:  154.8065

     GRADIENT =  0.00677 IS LESS THAN CUTOFF =  0.05000



 -------------------------------------------------------------------------------
 PRECISE LARGE CHARGE=1 SINGLET  PM7
 amonium(+), PM7



     GEOMETRY OPTIMISED USING EIGENVECTOR FOLLOWING (EF).     
     SCF FIELD WAS ACHIEVED                                   


                              PM7 CALCULATION
                                                       MOPAC v22.1.0 Windows
                                                       Fri Jan 26 12:26:32 2024




          FINAL HEAT OF FORMATION =        154.80645 KCAL/MOL =     647.71020 KJ/MOL


          COSMO AREA              =         50.39 SQUARE ANGSTROMS
          COSMO VOLUME            =         31.95 CUBIC ANGSTROMS

          GRADIENT NORM           =          0.00677          =       0.00303 PER ATOM
          IONIZATION POTENTIAL    =         24.654359 EV
          HOMO LUMO ENERGIES (EV) =        -24.654 -4.363
          NO. OF FILLED LEVELS    =          4
          MOLECULAR WEIGHT        =         18.0383         POINT GROUP:  Td  

          MOLECULAR DIMENSIONS (Angstroms)

            Atom       Atom       Distance
            H     5    H     2     1.68061
            H     3    H     4     1.68060
            H     3    H     2     1.18834


          SCF CALCULATIONS        =         12
 
          WALL-CLOCK TIME         =      0.066 SECONDS
          COMPUTATION TIME        =      0.062 SECONDS




   ATOM   CHEMICAL          X               Y               Z
  NUMBER   SYMBOL      (ANGSTROMS)     (ANGSTROMS)     (ANGSTROMS)
 
     1       N         -6.34271195  *   0.39327945  *   0.02713222  *
     2       H         -5.31892617  *   0.29222657  *  -0.00107614  *
     3       H         -6.65011120  *   0.99020508  *  -0.75281967  *
     4       H         -6.62037797  *   0.82458035  *   0.91933153  *
     5       H         -6.78141739  *  -0.53387997  *  -0.05690399  *

                             CARTESIAN COORDINATES

   1    N       -6.342711948     0.393279454     0.027132219
   2    H       -5.318926174     0.292226568    -0.001076135
   3    H       -6.650111202     0.990205078    -0.752819673
   4    H       -6.620377973     0.824580355     0.919331532
   5    H       -6.781417389    -0.533879966    -0.056903995


           Empirical Formula: H4 N  =     5 atoms



      MOLECULAR POINT GROUP   :   Td  


                  EIGENVALUES  
 -45.60958 -24.65460 -24.65456 -24.65436  -4.36336  -1.71147  -1.71138  -1.71136


              NET ATOMIC CHARGES AND DIPOLE CONTRIBUTIONS

  ATOM NO.   TYPE          CHARGE      No. of ELECS.   s-Pop       p-Pop       
    1          N          -0.225393        5.2254     1.44225     3.78315
    2          H           0.306347        0.6937     0.69365
    3          H           0.306347        0.6937     0.69365
    4          H           0.306347        0.6937     0.69365
    5          H           0.306351        0.6936     0.69365
 DIPOLE           X         Y         Z       TOTAL
 POINT-CHG.     0.000    -0.000    -0.000     0.000
 HYBRID         0.000     0.000     0.000     0.000
 SUM            0.000     0.000     0.000     0.000


          ATOMIC ORBITAL ELECTRON POPULATIONS

     Atom    s        px        py        pz   
    1  N   1.44225   1.26105   1.26105   1.26105
    2  H   0.69365
    3  H   0.69365
    4  H   0.69365
    5  H   0.69365
 *******************************************************************************
 **                                                                           **
 **                              MOPAC v22.1.0                                **
 **                                                                           **
 *******************************************************************************
 **          Digital Object Identifier (DOI): 10.5281/zenodo.6511958          **
 **    Visit the DOI location for information on how to cite this program.    **
 *******************************************************************************

                              PM7 CALCULATION RESULTS

 *******************************************************************************
 *  CALCULATION DONE:                                Fri Jan 26 12:26:32 2024  *
 *  PM7        - The PM7 Hamiltonian to be used
 *  SINGLET    - SPIN STATE DEFINED AS A SINGLET
 *
 *
 *
 *                 CHARGE ON SYSTEM = +1
 *
 *
 *
 *  OLDGEO     - PREVIOUS GEOMETRY TO BE USED
 *  PRECISE    - TIGHTER CRITERIA TO BE USED
 *  T=         - A TIME OF 172800.0 SECONDS REQUESTED
 *  DUMP=N     - RESTART FILE WRITTEN EVERY 7200.0 SECONDS REQUESTED
 *  THERMO     - THERMODYNAMIC QUANTITIES TO BE CALCULATED
 *******************************************************************************
OLDGEO CHARGE=1 SINGLET PRECISE PM7 THERMO
 amonium(+), PM7

   ATOM   CHEMICAL          X               Y               Z
  NUMBER   SYMBOL      (ANGSTROMS)     (ANGSTROMS)     (ANGSTROMS)
 
     1       N         -6.34271195  *   0.39327945  *   0.02713222  *
     2       H         -5.31892617  *   0.29222657  *  -0.00107614  *
     3       H         -6.65011120  *   0.99020508  *  -0.75281967  *
     4       H         -6.62037797  *   0.82458035  *   0.91933153  *
     5       H         -6.78141739  *  -0.53387997  *  -0.05690399  *
 


          CARTESIAN COORDINATES 

    NO.       ATOM           X           Y           Z

     1         N         -6.3427      0.3933      0.0271
     2         H         -5.3189      0.2922     -0.0011
     3         H         -6.6501      0.9902     -0.7528
     4         H         -6.6204      0.8246      0.9193
     5         H         -6.7814     -0.5339     -0.0569

 General Reference for PM7:
 "Optimization of Parameters for Semiempirical Methods VI: More Modifications to the 
 NDDO Approximations and Re-optimization of Parameters", J. J. P. Stewart, J. Mol. Mod., 1:32, 19 (2013)
 https://link.springer.com/article/10.1007/s00894-012-1667-x

           Empirical Formula: H4 N  =     5 atoms



      MOLECULAR POINT GROUP   :   Td  


 SINGLET STATE CALCULATION


      RHF CALCULATION, NO. OF DOUBLY OCCUPIED LEVELS = 4



          HEAT OF FORMATION =     154.806452 KCALS/MOLE


          CARTESIAN COORDINATE DERIVATIVES

   NUMBER  ATOM         X            Y            Z

     1       N     -0.002300    -0.000256    -0.000681
     2       H      0.000362     0.001539     0.003857
     3       H      0.002036    -0.000136    -0.001197
     4       H      0.002961    -0.000693    -0.000582
     5       H     -0.003060    -0.000454    -0.001398
 


          GRADIENT NORM =   0.00706

          MOLECULAR WEIGHT =   18.04



          ROTATIONAL CONSTANTS IN CM(-1)

          A =    5.92190765   B =    5.92184921   C =    5.92172438



           PRINCIPAL MOMENTS OF INERTIA IN UNITS OF 10**(-40)*GRAM-CM**2

          A =        4.7270   B =        4.7270   C =        4.7271


          ORIENTATION OF MOLECULE IN FORCE CALCULATION

    NO.       ATOM         X         Y         Z

     1          N      -0.0000   -0.0000   -0.0000
     2          H       1.0291   -0.0000   -0.0000
     3          H      -0.3430    0.9703   -0.0000
     4          H      -0.3430   -0.4851    0.8403
     5          H      -0.3431   -0.4851   -0.8403


    FIRST DERIVATIVES WILL BE USED IN THE CALCULATION OF SECOND DERIVATIVES

          ESTIMATED TIME TO COMPLETE CALCULATION =        0.23 SECONDS

    FOR POINT-GROUP Td   THERE ARE  24 UNIQUE SYMMETRY FUNCTIONS.

 STEP:   1 TIME =     0.01 SECS, INTEGRAL =      0.01 TIME LEFT: 172799.99
 STEP:   2 TIME =     0.01 SECS, INTEGRAL =      0.02 TIME LEFT: 172799.98
 STEP:   3 TIME =     0.02 SECS, INTEGRAL =      0.04 TIME LEFT: 172799.96
 STEP:   4 TIME =     0.01 SECS, INTEGRAL =      0.04 TIME LEFT: 172799.95
 STEP:   5 TIME =     0.01 SECS, INTEGRAL =      0.05 TIME LEFT: 172799.94
 STEP:   6 TIME =     0.01 SECS, INTEGRAL =      0.07 TIME LEFT: 172799.93
 STEP:   7                       INTEGRAL =      0.07 TIME LEFT: 172799.93
 STEP:   8                       INTEGRAL =      0.07 TIME LEFT: 172799.93
 STEP:   9                       INTEGRAL =      0.07 TIME LEFT: 172799.93
 STEP:  10                       INTEGRAL =      0.07 TIME LEFT: 172799.93
 STEP:  11                       INTEGRAL =      0.07 TIME LEFT: 172799.93
 STEP:  12                       INTEGRAL =      0.07 TIME LEFT: 172799.93
 STEP:  13                       INTEGRAL =      0.07 TIME LEFT: 172799.93
 STEP:  14                       INTEGRAL =      0.07 TIME LEFT: 172799.93
 STEP:  15                       INTEGRAL =      0.07 TIME LEFT: 172799.93

(To convert to Hartree/Bohr^2, multiply by (10^(-21) x N x a0^2)/(4.184 x 627.51) =  0.0642)


           FORCE MATRIX IN MILLIDYNES/ANGSTROM


                  N  1       H  2       H  3       H  4       H  5
 ------------------------------------------------------------------
     N    1  12.174214
     H    2   3.577354   4.076598
     H    3   3.577364   0.610084   4.076598
     H    4   3.577362   0.610087   0.610084   4.076598
     H    5   3.577317   0.610051   0.610051   0.610051   4.076598


          HEAT OF FORMATION =     154.806452 KCALS/MOLE

          ZERO POINT ENERGY      26.310 KCAL/MOL


           NORMAL COORDINATE ANALYSIS (Total motion = 1 Angstrom)


   Root No.       1         2         3         4         5         6         7         8

                 1 T2      1 T2      1 T2      1 E       1 E       2 T2      2 T2      2 T2  

                1540.8    1540.8    1540.8    1618.4    1618.4    2608.7    2608.7    2608.7
  
           1   -0.0263   -0.0043   -0.0482    0.0000   -0.0000   -0.0414    0.0031   -0.0041
           2   -0.0407    0.0322    0.0192    0.0000   -0.0000   -0.0010   -0.0421   -0.0173
           3   -0.0266   -0.0450    0.0183   -0.0000   -0.0000    0.0048    0.0184   -0.0388
           4   -0.0102   -0.0017   -0.0187    0.0000   -0.0000    0.4768   -0.0361    0.0467
           5    0.2200   -0.1739   -0.1035    0.2216   -0.1158   -0.0006   -0.0232   -0.0095
           6    0.1437    0.2433   -0.0990   -0.1158   -0.2216    0.0026    0.0101   -0.0214
           7    0.1992   -0.0380    0.1947    0.2089   -0.1092    0.0289   -0.1622   -0.0623
           8    0.0582   -0.0004    0.0829    0.0739   -0.0386   -0.1469    0.4405    0.1604
           9    0.1437    0.2433   -0.0990    0.1158    0.2216    0.0026    0.0101   -0.0214
          10    0.1299    0.1208    0.2181   -0.1990   -0.1263    0.0503    0.1378   -0.0917
          11    0.2030   -0.0361   -0.1636   -0.0809    0.2051    0.1028    0.1693   -0.1360
          12    0.1732    0.0045    0.0050   -0.1279    0.0669   -0.1763   -0.3232    0.1977
          13    0.0461   -0.0211    0.2758   -0.0099    0.2355    0.0190    0.0170    0.1636
          14    0.0845   -0.2368   -0.0819   -0.2146   -0.0507    0.0585   -0.0016    0.2250
          15   -0.0912    0.1344   -0.0616    0.1279   -0.0669    0.1049    0.0475    0.3848


   Root No.       9

                 1 A1  

                2719.0
  
           1    0.0000
           2    0.0000
           3    0.0000
           4    0.2500
           5   -0.0000
           6   -0.0000
           7   -0.0833
           8    0.2357
           9    0.0000
          10   -0.0833
          11   -0.1179
          12    0.2041
          13   -0.0833
          14   -0.1179
          15   -0.2041


           MASS-WEIGHTED COORDINATE ANALYSIS (NORMAL COORDINATES)


   Root No.       1         2         3         4         5         6         7         8

                 1 T2      1 T2      1 T2      1 E       1 E       2 T2      2 T2      2 T2  

                1540.8    1540.8    1540.8    1618.4    1618.4    2608.7    2608.7    2608.7
  
           1   -0.1854   -0.0483   -0.3381    0.0000   -0.0000   -0.2674    0.0177   -0.0256
           2   -0.3149    0.1733    0.1479    0.0000   -0.0000   -0.0059   -0.2461   -0.1088
           3   -0.1324   -0.3445    0.1218   -0.0000   -0.0000    0.0305    0.1075   -0.2449
           4   -0.0193   -0.0050   -0.0352    0.0000   -0.0000    0.8266   -0.0547    0.0790
           5    0.4566   -0.2512   -0.2144    0.4509   -0.2162   -0.0009   -0.0364   -0.0161
           6    0.1919    0.4995   -0.1766   -0.2162   -0.4509    0.0045    0.0159   -0.0362
           7    0.3906   -0.0229    0.3597    0.4251   -0.2038    0.0507   -0.2543   -0.1054
           8    0.1121    0.0117    0.1550    0.1503   -0.0720   -0.2561    0.6903    0.2713
           9    0.1919    0.4995   -0.1766    0.2161    0.4509    0.0045    0.0159   -0.0362
          10    0.2159    0.2497    0.4165   -0.3890   -0.2662    0.0866    0.2163   -0.1551
          11    0.3817    0.0028   -0.3188   -0.1758    0.4044    0.1775    0.2659   -0.2300
          12    0.3215    0.0594    0.0041   -0.2603    0.1248   -0.3045   -0.5076    0.3344
          13    0.1039   -0.0417    0.5195   -0.0360    0.4700    0.0328    0.0267    0.2767
          14    0.2234   -0.4093   -0.1730   -0.4254   -0.1162    0.1014   -0.0023    0.3806
          15   -0.2119    0.2258   -0.1050    0.2603   -0.1248    0.1817    0.0749    0.6508


   Root No.       9

                 1 A1  

                2719.0
  
           1    0.0000
           2    0.0000
           3    0.0000
           4    0.5000
           5   -0.0000
           6   -0.0000
           7   -0.1667
           8    0.4714
           9    0.0000
          10   -0.1667
          11   -0.2357
          12    0.4083
          13   -0.1667
          14   -0.2357
          15   -0.4082


          DESCRIPTION OF VIBRATIONS


 VIBRATION          3    1T2         ATOM PAIR     ENERGY CONTRIBUTION    RADIAL
 FREQUENCY          1540.77         N 1 -- H 5         +34.7% ( 56.6%)      0.3%
 TRANSITION DIPOLE   1.0611         N 1 -- H 4         +31.2% ( 53.7%)      2.0%
 TRAVEL (Ang.)       0.2865         N 1 -- H 3         +22.3% ( 45.3%)      8.9%
 REDUCED MASS        0.5338         N 1 -- H 2         +11.8% ( 33.0%)     29.4%
 EFFECTIVE MASS      2.2449
 FORCE CONSTANT      0.7466

 VIBRATION          5    1E          ATOM PAIR     ENERGY CONTRIBUTION    RADIAL
 FREQUENCY          1618.40         N 1 -- H 2         +25.0% ( 36.8%)      0.0%
 TRANSITION DIPOLE   0.0000         N 1 -- H 3         +25.0% ( 36.8%)      0.0%
 TRAVEL (Ang.)       0.4066         N 1 -- H 4         +25.0% ( 36.8%)      0.0%
 REDUCED MASS        0.2520         N 1 -- H 5         +25.0% ( 36.8%)      0.0%
 EFFECTIVE MASS      1.0079
 FORCE CONSTANT      0.3888

 VIBRATION          8    2T2         ATOM PAIR     ENERGY CONTRIBUTION    RADIAL
 FREQUENCY          2608.74         N 1 -- H 5         +68.5% ( 85.0%)     99.7%
 TRANSITION DIPOLE   1.4191         N 1 -- H 4         +20.5% ( 46.5%)     89.5%
 TRAVEL (Ang.)       0.2196         N 1 -- H 3          +9.6% ( 31.9%)     76.2%
 REDUCED MASS        0.5362         N 1 -- H 2          +1.4% ( 12.2%)     17.3%
 EFFECTIVE MASS      1.4744
 FORCE CONSTANT      2.1501

 VIBRATION          9    1A1         ATOM PAIR     ENERGY CONTRIBUTION    RADIAL
 FREQUENCY          2719.04         N 1 -- H 5         +25.0% ( 47.1%)    100.0%
 TRANSITION DIPOLE   0.0000         N 1 -- H 4         +25.0% ( 47.1%)    100.0%
 TRAVEL (Ang.)       0.3137         N 1 -- H 3         +25.0% ( 47.1%)    100.0%
 REDUCED MASS        0.2520         N 1 -- H 2         +25.0% ( 47.1%)    100.0%
 EFFECTIVE MASS      1.0079
 FORCE CONSTANT      1.0976

      SYMMETRY NUMBER FOR POINT-GROUP Td  = 12


          SYSTEM IS A GROUND STATE



 amonium(+), PM7


          MOLECULE IS NOT LINEAR

          THERE ARE  9 GENUINE VIBRATIONS IN THIS SYSTEM
          THIS THERMODYNAMICS CALCULATION IS LIMITED TO
          MOLECULES WHICH HAVE NO INTERNAL ROTATIONS




                    CALCULATED THERMODYNAMIC PROPERTIES
                                          *
   TEMP. (K)   PARTITION FUNCTION   H.O.F.    ENTHALPY  HEAT CAPACITY ENTROPY
                                   KCAL/MOL   CAL/MOLE    CAL/K/MOL  CAL/K/MOL


 298.00  VIB.     0.1003D+01                    11.6062     0.2962     0.0441
         ROT.     0.3055D+02                   888.2803     2.9808     9.7759
         INT.     0.3063D+02                   899.8865     3.2770     9.8200
         TRA.     0.7407D+26                  1480.4672     4.9680    34.6106
         TOT.                      154.806    2380.3537     8.2450    44.4306

 200.00  VIB.     0.1000D+01                     0.2844     0.0160     0.0015
         ROT.     0.1680D+02                   596.1613     2.9808     8.5873
         INT.     0.1680D+02                   596.4457     2.9968     8.5888
         TRA.     0.4072D+26                   993.6021     4.9680    32.6295
         TOT.                      154.016    1590.0478     7.9648    41.2183

 210.00  VIB.     0.1000D+01                     0.4860     0.0248     0.0025
         ROT.     0.1807D+02                   625.9693     2.9808     8.7327
         INT.     0.1808D+02                   626.4553     3.0056     8.7352
         TRA.     0.4381D+26                  1043.2822     4.9680    32.8718
         TOT.                      154.096    1669.7375     7.9736    41.6071

 220.00  VIB.     0.1000D+01                     0.7911     0.0368     0.0039
         ROT.     0.1938D+02                   655.7774     2.9808     8.8714
         INT.     0.1938D+02                   656.5685     3.0176     8.8753
         TRA.     0.4698D+26                  1092.9623     4.9680    33.1030
         TOT.                      154.176    1749.5309     7.9856    41.9783

 230.00  VIB.     0.1000D+01                     1.2348     0.0526     0.0059
         ROT.     0.2072D+02                   685.5855     2.9808     9.0039
         INT.     0.2072D+02                   686.8202     3.0334     9.0098
         TRA.     0.5022D+26                  1142.6424     4.9680    33.3238
         TOT.                      154.256    1829.4627     8.0014    42.3336

 240.00  VIB.     0.1000D+01                     1.8574     0.0727     0.0086
         ROT.     0.2208D+02                   715.3935     2.9808     9.1307
         INT.     0.2209D+02                   717.2510     3.0535     9.1393
         TRA.     0.5353D+26                  1192.3226     4.9680    33.5352
         TOT.                      154.336    1909.5735     8.0215    42.6745

 250.00  VIB.     0.1001D+01                     2.7050     0.0976     0.0120
         ROT.     0.2348D+02                   745.2016     2.9808     9.2524
         INT.     0.2349D+02                   747.9066     3.0785     9.2644
         TRA.     0.5691D+26                  1242.0027     4.9680    33.7380
         TOT.                      154.416    1989.9092     8.0465    43.0025

 260.00  VIB.     0.1001D+01                     3.8279     0.1279     0.0164
         ROT.     0.2490D+02                   775.0097     2.9808     9.3693
         INT.     0.2492D+02                   778.8376     3.1087     9.3857
         TRA.     0.6036D+26                  1291.6828     4.9680    33.9329
         TOT.                      154.497    2070.5204     8.0767    43.3186

 270.00  VIB.     0.1001D+01                     5.2809     0.1637     0.0219
         ROT.     0.2635D+02                   804.8177     2.9808     9.4818
         INT.     0.2638D+02                   810.0986     3.1445     9.5037
         TRA.     0.6388D+26                  1341.3629     4.9680    34.1204
         TOT.                      154.578    2151.4615     8.1125    43.6241

 280.00  VIB.     0.1002D+01                     7.1217     0.2055     0.0286
         ROT.     0.2783D+02                   834.6258     2.9808     9.5902
         INT.     0.2787D+02                   841.7475     3.1863     9.6188
         TRA.     0.6746D+26                  1391.0430     4.9680    34.3011
         TOT.                      154.659    2232.7904     8.1543    43.9199

 290.00  VIB.     0.1002D+01                     9.4107     0.2534     0.0366
         ROT.     0.2933D+02                   864.4339     2.9808     9.6948
         INT.     0.2939D+02                   873.8445     3.2342     9.7314
         TRA.     0.7110D+26                  1440.7231     4.9680    34.4754
         TOT.                      154.741    2314.5676     8.2022    44.2068

 300.00  VIB.     0.1003D+01                    12.2099     0.3075     0.0461
         ROT.     0.3086D+02                   894.2419     2.9808     9.7959
         INT.     0.3094D+02                   906.4518     3.2883     9.8420
         TRA.     0.7481D+26                  1490.4032     4.9680    34.6438
         TOT.                      154.823    2396.8550     8.2563    44.4858

 310.00  VIB.     0.1003D+01                    15.5824     0.3680     0.0572
         ROT.     0.3242D+02                   924.0500     2.9808     9.8936
         INT.     0.3253D+02                   939.6324     3.3488     9.9508
         TRA.     0.7858D+26                  1540.0833     4.9680    34.8067
         TOT.                      154.906    2479.7157     8.3168    44.7575

 320.00  VIB.     0.1004D+01                    19.5914     0.4348     0.0699
         ROT.     0.3400D+02                   953.8580     2.9808     9.9882
         INT.     0.3415D+02                   973.4494     3.4156    10.0581
         TRA.     0.8242D+26                  1589.7634     4.9680    34.9645
         TOT.                      154.989    2563.2128     8.3836    45.0226

 330.00  VIB.     0.1005D+01                    24.2998     0.5079     0.0844
         ROT.     0.3560D+02                   983.6661     2.9808    10.0800
         INT.     0.3580D+02                  1007.9659     3.4887    10.1643
         TRA.     0.8631D+26                  1639.4435     4.9680    35.1173
         TOT.                      155.074    2647.4094     8.4567    45.2817

 340.00  VIB.     0.1007D+01                    29.7694     0.5871     0.1007
         ROT.     0.3723D+02                  1013.4742     2.9808    10.1690
         INT.     0.3748D+02                  1043.2436     3.5679    10.2696
         TRA.     0.9026D+26                  1689.1236     4.9680    35.2656
         TOT.                      155.158    2732.3672     8.5359    45.5353

 350.00  VIB.     0.1008D+01                    36.0609     0.6722     0.1189
         ROT.     0.3889D+02                  1043.2822     2.9808    10.2554
         INT.     0.3920D+02                  1079.3431     3.6530    10.3743
         TRA.     0.9427D+26                  1738.8037     4.9680    35.4097
         TOT.                      155.244    2818.1469     8.6210    45.7839

 360.00  VIB.     0.1010D+01                    43.2329     0.7631     0.1391
         ROT.     0.4057D+02                  1073.0903     2.9808    10.3393
         INT.     0.4096D+02                  1116.3232     3.7439    10.4785
         TRA.     0.9834D+26                  1788.4838     4.9680    35.5496
         TOT.                      155.331    2904.8070     8.7119    46.0281

 370.00  VIB.     0.1011D+01                    51.3420     0.8596     0.1613
         ROT.     0.4227D+02                  1102.8984     2.9808    10.4210
         INT.     0.4275D+02                  1154.2403     3.8404    10.5823
         TRA.     0.1025D+27                  1838.1639     4.9680    35.6857
         TOT.                      155.419    2992.4043     8.8084    46.2681

 380.00  VIB.     0.1013D+01                    60.4423     0.9613     0.1856
         ROT.     0.4399D+02                  1132.7064     2.9808    10.5005
         INT.     0.4459D+02                  1193.1487     3.9421    10.6861
         TRA.     0.1067D+27                  1887.8440     4.9680    35.8182
         TOT.                      155.507    3080.9927     8.9101    46.5043

 390.00  VIB.     0.1016D+01                    70.5853     1.0681     0.2119
         ROT.     0.4574D+02                  1162.5145     2.9808    10.5779
         INT.     0.4646D+02                  1233.0998     4.0489    10.7899
         TRA.     0.1109D+27                  1937.5242     4.9680    35.9473
         TOT.                      155.597    3170.6240     9.0169    46.7371

 400.00  VIB.     0.1018D+01                    81.8199     1.1796     0.2404
         ROT.     0.4751D+02                  1192.3226     2.9808    10.6534
         INT.     0.4838D+02                  1274.1425     4.1604    10.8938
         TRA.     0.1152D+27                  1987.2043     4.9680    36.0730
         TOT.                      155.687    3261.3468     9.1284    46.9668

   *: NOTE: HEATS OF FORMATION ARE RELATIVE TO THE
            ELEMENTS IN THEIR STANDARD STATE AT 298K
              (=  Standard Enthalpy of Formation).

            Hvib:  Zero-point energy is not included.
                   frequencies of less than zero cm-1 are not included.
            Hrot = (3/2)RT
            Htra = (3/2)RT + pV = (5/2)RT

            Heat capacity is Cp, not Cv

          For more information, see: HTTP://OpenMOPAC.net/Manual/thermochemistry.html


           FORCE CONSTANT IN CARTESIAN COORDINATES (Millidynes/A)

    ATOM   CHEMICAL       X               Y               Z
   NUMBER   SYMBOL  FORCE CONSTANT  FORCE CONSTANT  FORCE CONSTANT

      1       N        7.028644        7.028644        7.028644
      2       H        3.898512        0.842619        0.842619
      3       H        1.182133        3.558998        0.842619
      4       H        1.182135        1.521687        2.879926
      5       H        1.182218        1.521695        2.879835

 **********************
 *                    *
 * JOB ENDED NORMALLY *
 *                    *
 **********************



 TOTAL JOB TIME:             0.22 SECONDS

 == MOPAC DONE ==
