 *******************************************************************************
 **                                                                           **
 **                              MOPAC v22.1.0                                **
 **                                                                           **
 *******************************************************************************
 **          Digital Object Identifier (DOI): 10.5281/zenodo.6511958          **
 **    Visit the DOI location for information on how to cite this program.    **
 *******************************************************************************

                              PM7 CALCULATION RESULTS

 *******************************************************************************
 *  CALCULATION DONE:                                Fri Jan 26 10:44:39 2024  *
 *  PM7        - The PM7 Hamiltonian to be used
 *  SINGLET    - SPIN STATE DEFINED AS A SINGLET
 *
 *
 *
 *                 CHARGE ON SYSTEM = 0
 *
 *
 *
 *  PRECISE    - TIGHTER CRITERIA TO BE USED
 *  T=         - A TIME OF 172800.0 SECONDS REQUESTED
 *  DUMP=N     - RESTART FILE WRITTEN EVERY 7200.0 SECONDS REQUESTED
 *  LARGE      - EXPANDED OUTPUT TO BE PRINTED
 *******************************************************************************
 PRECISE LARGE CHARGE=0 SINGLET  PM7
 anilin, PM7

   ATOM   CHEMICAL          X               Y               Z
  NUMBER   SYMBOL      (ANGSTROMS)     (ANGSTROMS)     (ANGSTROMS)
 
     1       N         -2.40460000  *   0.00020000  *  -0.00020000  *
     2       C         -0.99420000  *   0.00020000  *   0.00020000  *
     3       C         -0.29640000  *   1.20810000  *   0.00020000  *
     4       C         -0.29690000  *  -1.20800000  *   0.00010000  *
     5       C          1.09840000  *   1.20790000  *  -0.00010000  *
     6       C          1.09800000  *  -1.20810000  *   0.00000000  *
     7       C          1.79560000  *  -0.00010000  *  -0.00010000  *
     8       H         -0.82820000  *   2.15610000  *   0.00010000  *
     9       H         -0.82900000  *  -2.15600000  *   0.00000000  *
    10       H          1.64180000  *   2.14840000  *  -0.00010000  *
    11       H          1.64110000  *  -2.14860000  *  -0.00010000  *
    12       H          2.88160000  *  -0.00040000  *  -0.00030000  *
    13       H         -2.91080000  *  -0.87530000  *   0.00060000  *
    14       H         -2.91070000  *   0.87570000  *   0.00070000  *
 


          CARTESIAN COORDINATES 

    NO.       ATOM           X           Y           Z

     1         N         -2.4046      0.0002     -0.0002
     2         C         -0.9942      0.0002      0.0002
     3         C         -0.2964      1.2081      0.0002
     4         C         -0.2969     -1.2080      0.0001
     5         C          1.0984      1.2079     -0.0001
     6         C          1.0980     -1.2081      0.0000
     7         C          1.7956     -0.0001     -0.0001
     8         H         -0.8282      2.1561      0.0001
     9         H         -0.8290     -2.1560      0.0000
    10         H          1.6418      2.1484     -0.0001
    11         H          1.6411     -2.1486     -0.0001
    12         H          2.8816     -0.0004     -0.0003
    13         H         -2.9108     -0.8753      0.0006
    14         H         -2.9107      0.8757      0.0007

 General Reference for PM7:
 "Optimization of Parameters for Semiempirical Methods VI: More Modifications to the 
 NDDO Approximations and Re-optimization of Parameters", J. J. P. Stewart, J. Mol. Mod., 1:32, 19 (2013)
 https://link.springer.com/article/10.1007/s00894-012-1667-x

           Empirical Formula: C6 H7 N  =    14 atoms



      MOLECULAR POINT GROUP   :   C2v 


 SINGLET STATE CALCULATION


      RHF CALCULATION, NO. OF DOUBLY OCCUPIED LEVELS = 18


          Geometry optimization using EF

          DIAGONAL MATRIX USED AS START HESSIAN

 CYCLE:     1 TIME:   0.039 TIME LEFT:  2.00D  GRAD.:    56.547 HEAT:  22.42142
 CYCLE:     2 TIME:   0.055 TIME LEFT:  2.00D  GRAD.:    40.468 HEAT:  21.87611
 CYCLE:     3 TIME:   0.027 TIME LEFT:  2.00D  GRAD.:    10.471 HEAT:  21.47533
 CYCLE:     4 TIME:   0.027 TIME LEFT:  2.00D  GRAD.:     9.121 HEAT:  21.43729
 CYCLE:     5 TIME:   0.027 TIME LEFT:  2.00D  GRAD.:     6.536 HEAT:  21.42276
 CYCLE:     6 TIME:   0.027 TIME LEFT:  2.00D  GRAD.:     9.244 HEAT:  21.42274
 CYCLE:     7 TIME:   0.027 TIME LEFT:  2.00D  GRAD.:     6.374 HEAT:  21.41474
 CYCLE:     8 TIME:   0.023 TIME LEFT:  2.00D  GRAD.:     4.333 HEAT:  21.40549
 CYCLE:     9 TIME:   0.027 TIME LEFT:  2.00D  GRAD.:     5.092 HEAT:  21.40527
 CYCLE:    10 TIME:   0.027 TIME LEFT:  2.00D  GRAD.:     1.968 HEAT:  21.39806
 CYCLE:    11 TIME:   0.027 TIME LEFT:  2.00D  GRAD.:     2.574 HEAT:  21.39755
 CYCLE:    12 TIME:   0.023 TIME LEFT:  2.00D  GRAD.:     1.167 HEAT:  21.39569
 CYCLE:    13 TIME:   0.027 TIME LEFT:  2.00D  GRAD.:     2.840 HEAT:  21.39665
 CYCLE:    14 TIME:   0.027 TIME LEFT:  2.00D  GRAD.:     0.327 HEAT:  21.39501
 CYCLE:    15 TIME:   0.027 TIME LEFT:  2.00D  GRAD.:     0.234 HEAT:  21.39495
 CYCLE:    16 TIME:   0.023 TIME LEFT:  2.00D  GRAD.:     0.265 HEAT:  21.39490
 CYCLE:    17 TIME:   0.027 TIME LEFT:  2.00D  GRAD.:     0.251 HEAT:  21.39482
 CYCLE:    18 TIME:   0.059 TIME LEFT:  2.00D  GRAD.:     0.317 HEAT:  21.39472
 CYCLE:    19 TIME:   0.031 TIME LEFT:  2.00D  GRAD.:     0.643 HEAT:  21.39437
 CYCLE:    20 TIME:   0.055 TIME LEFT:  2.00D  GRAD.:     4.783 HEAT:  21.39276
 CYCLE:    21 TIME:   0.027 TIME LEFT:  2.00D  GRAD.:     3.183 HEAT:  21.38983
 CYCLE:    22 TIME:   0.027 TIME LEFT:  2.00D  GRAD.:     5.326 HEAT:  21.36546
 CYCLE:    23 TIME:   0.051 TIME LEFT:  2.00D  GRAD.:    13.866 HEAT:  21.36048
 CYCLE:    24 TIME:   0.027 TIME LEFT:  2.00D  GRAD.:     5.742 HEAT:  21.30696
 CYCLE:    25 TIME:   0.023 TIME LEFT:  2.00D  GRAD.:     2.681 HEAT:  21.27629
 CYCLE:    26 TIME:   0.031 TIME LEFT:  2.00D  GRAD.:     3.740 HEAT:  21.24972
 CYCLE:    27 TIME:   0.027 TIME LEFT:  2.00D  GRAD.:     2.610 HEAT:  21.23688
 CYCLE:    28 TIME:   0.027 TIME LEFT:  2.00D  GRAD.:     1.230 HEAT:  21.23216
 CYCLE:    29 TIME:   0.027 TIME LEFT:  2.00D  GRAD.:     1.172 HEAT:  21.22900
 CYCLE:    30 TIME:   0.027 TIME LEFT:  2.00D  GRAD.:     0.782 HEAT:  21.22609
 CYCLE:    31 TIME:   0.027 TIME LEFT:  2.00D  GRAD.:     0.859 HEAT:  21.22341
 CYCLE:    32 TIME:   0.027 TIME LEFT:  2.00D  GRAD.:     0.799 HEAT:  21.22169
 CYCLE:    33 TIME:   0.027 TIME LEFT:  2.00D  GRAD.:     0.831 HEAT:  21.22000
 CYCLE:    34 TIME:   0.023 TIME LEFT:  2.00D  GRAD.:     0.542 HEAT:  21.21882
 CYCLE:    35 TIME:   0.031 TIME LEFT:  2.00D  GRAD.:     0.439 HEAT:  21.21821
 CYCLE:    36 TIME:   0.023 TIME LEFT:  2.00D  GRAD.:     0.304 HEAT:  21.21799
 CYCLE:    37 TIME:   0.027 TIME LEFT:  2.00D  GRAD.:     0.177 HEAT:  21.21787
 CYCLE:    38 TIME:   0.027 TIME LEFT:  2.00D  GRAD.:     0.076 HEAT:  21.21780
 CYCLE:    39 TIME:   0.023 TIME LEFT:  2.00D  GRAD.:     0.039 HEAT:  21.21780

     GRADIENT =  0.03862 IS LESS THAN CUTOFF =  0.05000



 -------------------------------------------------------------------------------
 PRECISE LARGE CHARGE=0 SINGLET  PM7
 anilin, PM7



     GEOMETRY OPTIMISED USING EIGENVECTOR FOLLOWING (EF).     
     SCF FIELD WAS ACHIEVED                                   


                              PM7 CALCULATION
                                                       MOPAC v22.1.0 Windows
                                                       Fri Jan 26 10:44:40 2024




          FINAL HEAT OF FORMATION =         21.21780 KCAL/MOL =      88.77526 KJ/MOL


          COSMO AREA              =        133.24 SQUARE ANGSTROMS
          COSMO VOLUME            =        123.26 CUBIC ANGSTROMS

          GRADIENT NORM           =          0.03862          =       0.01032 PER ATOM
          IONIZATION POTENTIAL    =          8.457690 EV
          HOMO LUMO ENERGIES (EV) =         -8.458  0.334
          NO. OF FILLED LEVELS    =         18
          MOLECULAR WEIGHT        =         93.1280         POINT GROUP:  Cs  

          MOLECULAR DIMENSIONS (Angstroms)

            Atom       Atom       Distance
            H    14    H    12     5.82264
            H    10    H     9     4.62245
            H    13    N     1     0.21481


          SCF CALCULATIONS        =         43
 
          WALL-CLOCK TIME         =      1.230 SECONDS
          COMPUTATION TIME        =      3.891 SECONDS




   ATOM   CHEMICAL          X               Y               Z
  NUMBER   SYMBOL      (ANGSTROMS)     (ANGSTROMS)     (ANGSTROMS)
 
     1       N         -2.39207902  *   0.00027989  *  -0.07790153  *
     2       C         -0.99948736  *   0.00013707  *  -0.00393321  *
     3       C         -0.29713092  *   1.22014407  *   0.00092548  *
     4       C         -0.29741825  *  -1.22003969  *   0.00091394  *
     5       C          1.09197511  *   1.20600362  *   0.00208412  *
     6       C          1.09169062  *  -1.20623488  *   0.00206636  *
     7       C          1.79198689  *  -0.00020217  *   0.00426655  *
     8       H         -0.83576468  *   2.16112649  *  -0.00594481  *
     9       H         -0.83629294  *  -2.16089872  *  -0.00600944  *
    10       H          1.63956254  *   2.14827391  *   0.00203012  *
    11       H          1.63905521  *  -2.14862830  *   0.00201940  *
    12       H          2.87717437  *  -0.00032469  *   0.00681903  *
    13       H         -2.88289087  *  -0.84167295  *   0.13554621  *
    14       H         -2.88272301  *   0.84238922  *   0.13530692  *

                             CARTESIAN COORDINATES

   1    N       -2.392079016     0.000279886    -0.077901525
   2    C       -0.999487362     0.000137073    -0.003933205
   3    C       -0.297130917     1.220144066     0.000925477
   4    C       -0.297418248    -1.220039691     0.000913938
   5    C        1.091975114     1.206003615     0.002084125
   6    C        1.091690619    -1.206234878     0.002066355
   7    C        1.791986892    -0.000202174     0.004266550
   8    H       -0.835764678     2.161126490    -0.005944806
   9    H       -0.836292936    -2.160898717    -0.006009442
  10    H        1.639562542     2.148273911     0.002030119
  11    H        1.639055209    -2.148628304     0.002019400
  12    H        2.877174371    -0.000324685     0.006819030
  13    H       -2.882890868    -0.841672952     0.135546212
  14    H       -2.882723007     0.842389217     0.135306920


           Empirical Formula: C6 H7 N  =    14 atoms



      MOLECULAR POINT GROUP   :   Cs  


                  EIGENVALUES  
 -36.70366 -30.05205 -25.78169 -25.09300 -21.29273 -20.79940 -18.02363 -17.30799
 -16.02483 -14.53838 -14.48981 -14.19482 -13.79393 -12.30566 -11.77887 -11.40124
  -9.82875  -8.45769   0.33353   0.51639   2.68381   2.93781   4.34156   4.50631
   5.09497   5.20829   5.46383   5.68775   6.05524   6.12274   6.19438   6.33417
   6.46032   6.50603   6.85550


              NET ATOMIC CHARGES AND DIPOLE CONTRIBUTIONS

  ATOM NO.   TYPE          CHARGE      No. of ELECS.   s-Pop       p-Pop       
    1          N          -0.633998        5.6340     1.54472     4.08928
    2          C           0.263238        3.7368     1.05858     2.67818
    3          C          -0.297554        4.2976     1.07176     3.22579
    4          C          -0.297549        4.2975     1.07177     3.22578
    5          C          -0.060548        4.0605     1.08445     2.97610
    6          C          -0.060550        4.0605     1.08445     2.97610
    7          C          -0.246791        4.2468     1.07421     3.17259
    8          H           0.156262        0.8437     0.84374
    9          H           0.156264        0.8437     0.84374
   10          H           0.144029        0.8560     0.85597
   11          H           0.144029        0.8560     0.85597
   12          H           0.151895        0.8481     0.84810
   13          H           0.290637        0.7094     0.70936
   14          H           0.290636        0.7094     0.70936
 DIPOLE           X         Y         Z       TOTAL
 POINT-CHG.    -0.825     0.000     0.600     1.021
 HYBRID        -0.612     0.000     0.422     0.744
 SUM           -1.438     0.000     1.022     1.764


          ATOMIC ORBITAL ELECTRON POPULATIONS

     Atom    s        px        py        pz   
    1  N   1.54472   1.12801   1.20065   1.76063
    2  C   1.05858   0.80698   0.98109   0.89011
    3  C   1.07176   1.02254   1.04880   1.15445
    4  C   1.07177   1.02256   1.04878   1.15444
    5  C   1.08445   0.99597   1.04989   0.93023
    6  C   1.08445   0.99596   1.04991   0.93024
    7  C   1.07421   1.08145   0.99023   1.10091
    8  H   0.84374
    9  H   0.84374
   10  H   0.85597
   11  H   0.85597
   12  H   0.84810
   13  H   0.70936
   14  H   0.70936
 *******************************************************************************
 **                                                                           **
 **                              MOPAC v22.1.0                                **
 **                                                                           **
 *******************************************************************************
 **          Digital Object Identifier (DOI): 10.5281/zenodo.6511958          **
 **    Visit the DOI location for information on how to cite this program.    **
 *******************************************************************************

                              PM7 CALCULATION RESULTS

 *******************************************************************************
 *  CALCULATION DONE:                                Fri Jan 26 10:44:40 2024  *
 *  PM7        - The PM7 Hamiltonian to be used
 *  SINGLET    - SPIN STATE DEFINED AS A SINGLET
 *
 *
 *
 *                 CHARGE ON SYSTEM = 0
 *
 *
 *
 *  OLDGEO     - PREVIOUS GEOMETRY TO BE USED
 *  PRECISE    - TIGHTER CRITERIA TO BE USED
 *  T=         - A TIME OF 172800.0 SECONDS REQUESTED
 *  DUMP=N     - RESTART FILE WRITTEN EVERY 7200.0 SECONDS REQUESTED
 *  THERMO     - THERMODYNAMIC QUANTITIES TO BE CALCULATED
 *******************************************************************************
OLDGEO CHARGE=0 SINGLET PRECISE PM7 THERMO
 anilin, PM7

   ATOM   CHEMICAL          X               Y               Z
  NUMBER   SYMBOL      (ANGSTROMS)     (ANGSTROMS)     (ANGSTROMS)
 
     1       N         -2.39207902  *   0.00027989  *  -0.07790153  *
     2       C         -0.99948736  *   0.00013707  *  -0.00393321  *
     3       C         -0.29713092  *   1.22014407  *   0.00092548  *
     4       C         -0.29741825  *  -1.22003969  *   0.00091394  *
     5       C          1.09197511  *   1.20600362  *   0.00208412  *
     6       C          1.09169062  *  -1.20623488  *   0.00206636  *
     7       C          1.79198689  *  -0.00020217  *   0.00426655  *
     8       H         -0.83576468  *   2.16112649  *  -0.00594481  *
     9       H         -0.83629294  *  -2.16089872  *  -0.00600944  *
    10       H          1.63956254  *   2.14827391  *   0.00203012  *
    11       H          1.63905521  *  -2.14862830  *   0.00201940  *
    12       H          2.87717437  *  -0.00032469  *   0.00681903  *
    13       H         -2.88289087  *  -0.84167295  *   0.13554621  *
    14       H         -2.88272301  *   0.84238922  *   0.13530692  *
 


          CARTESIAN COORDINATES 

    NO.       ATOM           X           Y           Z

     1         N         -2.3921      0.0003     -0.0779
     2         C         -0.9995      0.0001     -0.0039
     3         C         -0.2971      1.2201      0.0009
     4         C         -0.2974     -1.2200      0.0009
     5         C          1.0920      1.2060      0.0021
     6         C          1.0917     -1.2062      0.0021
     7         C          1.7920     -0.0002      0.0043
     8         H         -0.8358      2.1611     -0.0059
     9         H         -0.8363     -2.1609     -0.0060
    10         H          1.6396      2.1483      0.0020
    11         H          1.6391     -2.1486      0.0020
    12         H          2.8772     -0.0003      0.0068
    13         H         -2.8829     -0.8417      0.1355
    14         H         -2.8827      0.8424      0.1353

 General Reference for PM7:
 "Optimization of Parameters for Semiempirical Methods VI: More Modifications to the 
 NDDO Approximations and Re-optimization of Parameters", J. J. P. Stewart, J. Mol. Mod., 1:32, 19 (2013)
 https://link.springer.com/article/10.1007/s00894-012-1667-x

           Empirical Formula: C6 H7 N  =    14 atoms



      MOLECULAR POINT GROUP   :   Cs  


 SINGLET STATE CALCULATION


      RHF CALCULATION, NO. OF DOUBLY OCCUPIED LEVELS = 18



          HEAT OF FORMATION =      21.217796 KCALS/MOLE


          CARTESIAN COORDINATE DERIVATIVES

   NUMBER  ATOM         X            Y            Z

     1       N     -0.008445     0.000013    -0.002493
     2       C     -0.009168     0.003699     0.005229
     3       C     -0.008288    -0.000651     0.000592
     4       C     -0.003579     0.004151     0.004169
     5       C      0.001030    -0.000222     0.004365
     6       C      0.006005     0.003538    -0.000000
     7       C      0.011760    -0.008475     0.003990
     8       H      0.003193    -0.004357    -0.000648
     9       H     -0.001817    -0.001691    -0.002636
    10       H     -0.012830     0.000856    -0.003967
    11       H     -0.013451     0.003142    -0.002348
    12       H      0.014047     0.000576    -0.003065
    13       H      0.011778     0.001110    -0.000199
    14       H      0.009765    -0.001693    -0.002989
 


          GRADIENT NORM =   0.03858


          TIME FOR SCF CALCULATION =    0.01

          TIME FOR DERIVATIVES     =    0.02

          MOLECULAR WEIGHT =   93.13



          ROTATIONAL CONSTANTS IN CM(-1)

          A =    0.18535315   B =    0.08729904   C =    0.05938738



           PRINCIPAL MOMENTS OF INERTIA IN UNITS OF 10**(-40)*GRAM-CM**2

          A =      151.0239   B =      320.6536   C =      471.3586


          ORIENTATION OF MOLECULE IN FORCE CALCULATION

    NO.       ATOM         X         Y         Z

     1          N      -2.3260   -0.0014    0.0535
     2          C      -0.9315   -0.0014    0.0535
     3          C      -0.2300    1.2191    0.0535
     4          C      -0.2300   -1.2202   -0.0113
     5          C       1.1572    1.2070   -0.0194
     6          C       1.1572   -1.2043   -0.0834
     7          C       1.8565    0.0023   -0.0863
     8          H      -0.7683    2.1591    0.1002
     9          H      -0.7684   -2.1614   -0.0146
    10          H       1.7040    2.1498   -0.0234
    11          H       1.7039   -2.1456   -0.1375
    12          H       2.9403    0.0037   -0.1413
    13          H      -2.8047   -0.8495    0.2703
    14          H      -2.8048    0.8340    0.3147


    FIRST DERIVATIVES WILL BE USED IN THE CALCULATION OF SECOND DERIVATIVES

          ESTIMATED TIME TO COMPLETE CALCULATION =        5.25 SECONDS

    FOR POINT-GROUP Cs   THERE ARE   2 UNIQUE SYMMETRY FUNCTIONS.

 STEP:   1 TIME =     0.12 SECS, INTEGRAL =      0.12 TIME LEFT: 172799.84
 STEP:   2 TIME =     0.12 SECS, INTEGRAL =      0.25 TIME LEFT: 172799.72
 STEP:   3 TIME =     0.15 SECS, INTEGRAL =      0.40 TIME LEFT: 172799.57
 STEP:   4 TIME =     0.13 SECS, INTEGRAL =      0.53 TIME LEFT: 172799.44
 STEP:   5 TIME =     0.13 SECS, INTEGRAL =      0.66 TIME LEFT: 172799.31
 STEP:   6 TIME =     0.13 SECS, INTEGRAL =      0.79 TIME LEFT: 172799.18
 STEP:   7 TIME =     0.26 SECS, INTEGRAL =      1.05 TIME LEFT: 172798.92
 STEP:   8 TIME =     0.14 SECS, INTEGRAL =      1.20 TIME LEFT: 172798.77
 STEP:   9 TIME =     0.14 SECS, INTEGRAL =      1.33 TIME LEFT: 172798.64
 STEP:  10                       INTEGRAL =      1.33 TIME LEFT: 172798.64
 STEP:  11                       INTEGRAL =      1.33 TIME LEFT: 172798.64
 STEP:  12                       INTEGRAL =      1.33 TIME LEFT: 172798.64
 STEP:  13 TIME =     0.13 SECS, INTEGRAL =      1.46 TIME LEFT: 172798.50
 STEP:  14 TIME =     0.13 SECS, INTEGRAL =      1.59 TIME LEFT: 172798.38
 STEP:  15 TIME =     0.29 SECS, INTEGRAL =      1.88 TIME LEFT: 172798.09
 STEP:  16                       INTEGRAL =      1.88 TIME LEFT: 172798.09
 STEP:  17                       INTEGRAL =      1.88 TIME LEFT: 172798.09
 STEP:  18                       INTEGRAL =      1.88 TIME LEFT: 172798.09
 STEP:  19 TIME =     0.13 SECS, INTEGRAL =      2.02 TIME LEFT: 172797.95
 STEP:  20 TIME =     0.13 SECS, INTEGRAL =      2.15 TIME LEFT: 172797.82
 STEP:  21 TIME =     0.13 SECS, INTEGRAL =      2.28 TIME LEFT: 172797.69
 STEP:  22 TIME =     0.13 SECS, INTEGRAL =      2.41 TIME LEFT: 172797.56
 STEP:  23 TIME =     0.12 SECS, INTEGRAL =      2.54 TIME LEFT: 172797.43
 STEP:  24 TIME =     0.13 SECS, INTEGRAL =      2.66 TIME LEFT: 172797.30
 STEP:  25                       INTEGRAL =      2.66 TIME LEFT: 172797.30
 STEP:  26                       INTEGRAL =      2.66 TIME LEFT: 172797.30
 STEP:  27                       INTEGRAL =      2.66 TIME LEFT: 172797.30
 STEP:  28 TIME =     0.13 SECS, INTEGRAL =      2.79 TIME LEFT: 172797.18
 STEP:  29 TIME =     0.13 SECS, INTEGRAL =      2.93 TIME LEFT: 172797.04
 STEP:  30 TIME =     0.13 SECS, INTEGRAL =      3.05 TIME LEFT: 172796.91
 STEP:  31                       INTEGRAL =      3.05 TIME LEFT: 172796.91
 STEP:  32                       INTEGRAL =      3.05 TIME LEFT: 172796.91
 STEP:  33                       INTEGRAL =      3.05 TIME LEFT: 172796.91
 STEP:  34 TIME =     0.14 SECS, INTEGRAL =      3.20 TIME LEFT: 172796.77
 STEP:  35 TIME =     0.13 SECS, INTEGRAL =      3.33 TIME LEFT: 172796.64
 STEP:  36 TIME =     0.13 SECS, INTEGRAL =      3.46 TIME LEFT: 172796.51
 STEP:  37 TIME =     0.13 SECS, INTEGRAL =      3.59 TIME LEFT: 172796.38
 STEP:  38 TIME =     0.12 SECS, INTEGRAL =      3.71 TIME LEFT: 172796.25
 STEP:  39 TIME =     0.13 SECS, INTEGRAL =      3.84 TIME LEFT: 172796.12
 STEP:  40                       INTEGRAL =      3.84 TIME LEFT: 172796.12
 STEP:  41                       INTEGRAL =      3.84 TIME LEFT: 172796.12
 STEP:  42                       INTEGRAL =      3.84 TIME LEFT: 172796.12

(To convert to Hartree/Bohr^2, multiply by (10^(-21) x N x a0^2)/(4.184 x 627.51) =  0.0642)


           FORCE MATRIX IN MILLIDYNES/ANGSTROM


                  N  1       C  2       C  3       C  4       C  5       C  6
 ------------------------------------------------------------------------------
     N    1  12.937228
     C    2   5.686282  17.134517
     C    3   1.295032   5.431463  15.167310
     C    4   1.293354   5.434749   1.990361  15.167310
     C    5   0.156278   2.320458   6.315386   1.590182  15.383862
     C    6   0.154111   2.305451   1.581686   6.321883   2.390345  15.383862
     C    7   0.126846   1.669264   2.296913   2.296966   6.008110   6.008125
     H    8   0.057277   0.744969   3.486761   0.080255   0.779254   0.028704
     H    9   0.057459   0.745261   0.079978   3.486717   0.028823   0.779377
     H   10   0.012411   0.105081   0.755261   0.015401   3.469229   0.093527
     H   11   0.012191   0.105028   0.015476   0.755217   0.093369   3.468982
     H   12   0.035695   0.030729   0.087592   0.087597   0.764854   0.764856
     H   13   3.910289   0.941846   0.090412   0.051690   0.036184   0.018556
     H   14   3.910248   0.941817   0.051516   0.090162   0.018501   0.036121


                  C  7       H  8       H  9       H 10       H 11       H 12
 ------------------------------------------------------------------------------
     C    7  15.127163
     H    8   0.099207   4.418786
     H    9   0.099164   0.009119   4.418786
     H   10   0.740495   0.035543   0.011678   4.375564
     H   11   0.740557   0.011795   0.035611   0.009920   4.375564
     H   12   3.487668   0.006927   0.006926   0.032544   0.032544   4.413857
     H   13   0.021023   0.006055   0.025613   0.004003   0.002535   0.005718
     H   14   0.020953   0.025614   0.006027   0.002571   0.004052   0.005703


                  H 13       H 14
 ------------------------------
     H   13   4.625131
     H   14   0.574109   4.625131


          HEAT OF FORMATION =      21.217796 KCALS/MOLE

          ZERO POINT ENERGY      69.324 KCAL/MOL


           NORMAL COORDINATE ANALYSIS (Total motion = 1 Angstrom)


   Root No.       1         2         3         4         5         6         7         8

                 1 A'      1 A"      2 A"      3 A"      2 A'      3 A'      4 A'      4 A"  

                 188.1     334.6     367.8     400.4     416.6     465.1     529.4     608.0
  
           1   -0.0008   -0.0000   -0.0000    0.0000   -0.0496    0.0044   -0.0780   -0.0000
           2   -0.0021   -0.0109   -0.0013    0.0821    0.0018    0.0006   -0.0005   -0.0224
           3    0.0797   -0.0003   -0.0000    0.0022   -0.0687   -0.0243    0.0188   -0.0006
           4   -0.0016    0.0000   -0.0000   -0.0000   -0.0031    0.0049   -0.0753   -0.0000
           5    0.0010    0.0007   -0.0042   -0.0586   -0.0002   -0.0021   -0.0002   -0.0335
           6   -0.0363    0.0000   -0.0001   -0.0016    0.0085    0.0786    0.0064   -0.0009
           7   -0.0030   -0.0013    0.0005   -0.0186    0.0058   -0.0000    0.0139    0.0741
           8    0.0020    0.0011   -0.0049   -0.0461   -0.0133    0.0006   -0.0503   -0.0628
           9   -0.0718   -0.0276    0.0434   -0.0063    0.0061    0.0113   -0.0031   -0.0053
          10   -0.0030    0.0013   -0.0005    0.0186    0.0058   -0.0000    0.0139   -0.0741
          11    0.0018   -0.0004   -0.0026   -0.0463    0.0130   -0.0012    0.0504   -0.0629
          12   -0.0718    0.0276   -0.0436    0.0038    0.0068    0.0113   -0.0004    0.0020
          13    0.0006    0.0027   -0.0034   -0.0259    0.0095   -0.0035    0.0245    0.0806
          14   -0.0000   -0.0006    0.0016    0.0064   -0.0044    0.0020   -0.0435    0.0759
          15   -0.0002    0.0387   -0.0358    0.0054   -0.0025   -0.0508   -0.0032   -0.0022
          16    0.0006   -0.0027    0.0034    0.0259    0.0095   -0.0035    0.0245   -0.0806
          17    0.0001    0.0015   -0.0003    0.0067    0.0046    0.0007    0.0436    0.0757
          18   -0.0002   -0.0387    0.0358   -0.0050   -0.0022   -0.0509   -0.0009    0.0062
          19    0.0045    0.0000    0.0000    0.0000    0.0156    0.0010    0.0929    0.0000
          20   -0.0020    0.0007    0.0026    0.0213   -0.0001   -0.0016    0.0001    0.0418
          21    0.0753    0.0000    0.0001    0.0006    0.0031    0.0608   -0.0040    0.0011
          22   -0.0061   -0.0012    0.0040   -0.0500    0.0082   -0.0039    0.0588    0.0399
          23    0.0031    0.0030   -0.0069   -0.0608   -0.0076    0.0010   -0.0218   -0.0753
          24   -0.1287   -0.0708    0.1205   -0.0178   -0.0077   -0.0408   -0.0027   -0.0027
          25   -0.0061    0.0012   -0.0040    0.0500    0.0082   -0.0039    0.0588   -0.0399
          26    0.0037   -0.0008   -0.0005   -0.0616    0.0080    0.0011    0.0219   -0.0754
          27   -0.1287    0.0709   -0.1207    0.0145   -0.0072   -0.0408   -0.0015   -0.0013
          28    0.0010    0.0058   -0.0096   -0.0553    0.0016   -0.0095   -0.0171    0.0466
          29   -0.0002   -0.0021    0.0049    0.0228   -0.0002    0.0049   -0.0166    0.0869
          30    0.0052    0.1019   -0.0977    0.0143   -0.0123   -0.1805   -0.0022    0.0001
          31    0.0010   -0.0058    0.0096    0.0553    0.0016   -0.0095   -0.0171   -0.0466
          32   -0.0001    0.0033   -0.0003    0.0236    0.0009    0.0047    0.0167    0.0868
          33    0.0052   -0.1019    0.0978   -0.0130   -0.0123   -0.1805   -0.0013    0.0045
          34    0.0095   -0.0000    0.0000    0.0000    0.0170    0.0062    0.0878   -0.0000
          35   -0.0046   -0.0003    0.0039    0.0484   -0.0002   -0.0043    0.0001   -0.0629
          36    0.1746   -0.0000    0.0001    0.0013    0.0065    0.1623   -0.0023   -0.0017
          37    0.0173    0.0052   -0.0050   -0.1044    0.0704   -0.0129   -0.1061    0.0028
          38   -0.0040    0.0505    0.0506    0.1390    0.0216    0.0028   -0.0063   -0.0272
          39    0.1085    0.2492    0.1885   -0.0226    0.3764   -0.0508   -0.0952   -0.0051
          40    0.0173   -0.0052    0.0050    0.1044    0.0704   -0.0129   -0.1061   -0.0028
          41   -0.0018    0.0636    0.0605    0.1376   -0.0416   -0.0001    0.0114   -0.0274
          42    0.1086   -0.2461   -0.1855    0.0299    0.3748   -0.0509   -0.0947    0.0037


   Root No.       9        10        11        12        13        14        15        16

                 5 A'      6 A'      7 A'      5 A"      8 A'      6 A"      9 A'     10 A'  

                 628.7     813.4     865.5     884.0     950.5    1010.6    1040.4    1067.4
  
           1    0.0013   -0.0004   -0.0701    0.0000   -0.0016    0.0000   -0.0001    0.0530
           2    0.0004    0.0002   -0.0002    0.0010   -0.0002    0.0005    0.0000    0.0001
           3   -0.0136   -0.0075    0.0089    0.0000    0.0075    0.0000   -0.0018   -0.0026
           4    0.0047    0.0019   -0.0283   -0.0000   -0.0033   -0.0000    0.0011   -0.0033
           5   -0.0024   -0.0012   -0.0000   -0.0001    0.0012   -0.0001   -0.0003    0.0000
           6    0.0886    0.0443    0.0013   -0.0000   -0.0457   -0.0000    0.0128   -0.0008
           7   -0.0015   -0.0002    0.0446   -0.0022    0.0035   -0.0020   -0.0016    0.0120
           8    0.0008    0.0001   -0.0133    0.0006   -0.0018    0.0008    0.0015   -0.0972
           9   -0.0298   -0.0173   -0.0036   -0.0386    0.0539   -0.0403   -0.0277   -0.0038
          10   -0.0015   -0.0002    0.0446    0.0022    0.0035    0.0020   -0.0016    0.0120
          11    0.0008    0.0008    0.0135   -0.0014   -0.0011   -0.0014    0.0000    0.0973
          12   -0.0298   -0.0172   -0.0028    0.0386    0.0539    0.0403   -0.0278    0.0013
          13    0.0016   -0.0003    0.0521   -0.0015    0.0010    0.0025    0.0024   -0.0132
          14   -0.0004    0.0019    0.0849    0.0005    0.0016   -0.0014   -0.0016    0.0046
          15    0.0323   -0.0193    0.0005   -0.0252   -0.0004    0.0510    0.0491    0.0013
          16    0.0016   -0.0003    0.0521    0.0015    0.0010   -0.0025    0.0024   -0.0132
          17   -0.0014   -0.0009   -0.0848   -0.0008   -0.0016    0.0013   -0.0010   -0.0047
          18    0.0322   -0.0194   -0.0040    0.0252   -0.0005   -0.0510    0.0491    0.0011
          19   -0.0023   -0.0031   -0.0838    0.0000   -0.0036    0.0000   -0.0024   -0.0348
          20    0.0008    0.0008   -0.0002    0.0002    0.0013    0.0002    0.0014   -0.0000
          21   -0.0297   -0.0310    0.0065    0.0000   -0.0501    0.0000   -0.0541    0.0014
          22   -0.0132    0.0038    0.0250    0.0124   -0.0119    0.0092    0.0051   -0.0449
          23    0.0047   -0.0022   -0.0200   -0.0054    0.0045   -0.0034   -0.0010   -0.1199
          24   -0.2324    0.0762    0.0053    0.2411   -0.2428    0.1666    0.0944    0.0007
          25   -0.0132    0.0038    0.0250   -0.0124   -0.0119   -0.0092    0.0051   -0.0449
          26    0.0077   -0.0018    0.0197    0.0074    0.0084    0.0054   -0.0040    0.1196
          27   -0.2323    0.0762    0.0064   -0.2410   -0.2427   -0.1666    0.0943    0.0070
          28    0.0023    0.0123    0.0927    0.0089    0.0010   -0.0132   -0.0099   -0.1228
          29   -0.0008   -0.0046    0.0513   -0.0046    0.0015    0.0064    0.0045    0.0622
          30    0.0419    0.2102   -0.0124    0.1831   -0.0083   -0.2371   -0.1917    0.0059
          31    0.0023    0.0123    0.0927   -0.0089    0.0010    0.0132   -0.0099   -0.1228
          32   -0.0014   -0.0065   -0.0506    0.0051   -0.0010   -0.0062    0.0057   -0.0624
          33    0.0419    0.2101   -0.0151   -0.1831   -0.0084    0.2371   -0.1917    0.0026
          34   -0.0084    0.0116   -0.0738    0.0000    0.0127    0.0000    0.0105   -0.0353
          35    0.0041   -0.0067    0.0003    0.0008   -0.0072    0.0008   -0.0053   -0.0001
          36   -0.1537    0.2540   -0.0107    0.0000    0.2706    0.0000    0.1987    0.0028
          37   -0.0089   -0.0058   -0.0778    0.0001    0.0027    0.0003   -0.0007    0.0583
          38    0.0036    0.0027   -0.0016   -0.0018   -0.0035   -0.0007    0.0010   -0.0042
          39   -0.0174   -0.0044   -0.0360   -0.0100   -0.0023   -0.0032    0.0021    0.0055
          40   -0.0089   -0.0058   -0.0778   -0.0001    0.0027   -0.0003   -0.0007    0.0583
          41   -0.0026   -0.0024    0.0036   -0.0023    0.0036   -0.0008   -0.0011    0.0039
          42   -0.0175   -0.0046   -0.0359    0.0099   -0.0021    0.0032    0.0021    0.0057


   Root No.      17        18        19        20        21        22        23        24

                 7 A"     11 A'      8 A"      9 A"     12 A'     10 A"     11 A"     13 A'  

                1133.6    1184.0    1215.5    1224.8    1271.2    1345.4    1388.0    1433.4
  
           1   -0.0000   -0.0095   -0.0000   -0.0000    0.0034   -0.0000   -0.0000   -0.0535
           2   -0.0301   -0.0000   -0.0300   -0.0020    0.0000   -0.0024   -0.0135   -0.0002
           3   -0.0008    0.0012   -0.0008   -0.0001   -0.0010   -0.0001   -0.0004    0.0057
           4   -0.0000    0.0106    0.0000   -0.0000   -0.0082   -0.0000    0.0000    0.0733
           5   -0.0411    0.0000    0.0098   -0.0103   -0.0000   -0.0169    0.0368    0.0001
           6   -0.0011   -0.0006    0.0003   -0.0003    0.0008   -0.0004    0.0010   -0.0035
           7    0.0078   -0.0182   -0.0066    0.0438    0.0031    0.0531   -0.0069    0.0429
           8    0.0327    0.0154   -0.0029   -0.0036    0.0083    0.0249    0.0031    0.0157
           9    0.0003    0.0013    0.0002   -0.0021    0.0001   -0.0018    0.0003   -0.0015
          10   -0.0078   -0.0182    0.0066   -0.0438    0.0031   -0.0531    0.0069    0.0429
          11    0.0326   -0.0155   -0.0028   -0.0037   -0.0082    0.0248    0.0031   -0.0156
          12    0.0014    0.0005   -0.0003    0.0019   -0.0004    0.0032   -0.0001   -0.0024
          13   -0.0060    0.0104    0.0100   -0.0258   -0.0014   -0.0270    0.0398   -0.0028
          14    0.0219    0.0428   -0.0127   -0.0035    0.0083    0.0066   -0.0224   -0.0479
          15    0.0009    0.0006   -0.0009    0.0011    0.0002    0.0015   -0.0025   -0.0012
          16    0.0060    0.0104   -0.0100    0.0258   -0.0014    0.0270   -0.0398   -0.0028
          17    0.0219   -0.0427   -0.0127   -0.0035   -0.0083    0.0067   -0.0225    0.0479
          18    0.0002   -0.0017    0.0002   -0.0013   -0.0002   -0.0011    0.0014    0.0014
          19   -0.0000    0.0619    0.0000   -0.0000   -0.0035   -0.0000    0.0000   -0.0419
          20   -0.0305    0.0001    0.0224   -0.0067   -0.0000   -0.0573    0.0070   -0.0001
          21   -0.0008   -0.0030    0.0006   -0.0002    0.0002   -0.0015    0.0002    0.0021
          22   -0.0685   -0.1583    0.1556    0.0891    0.2083   -0.0451   -0.1663   -0.0801
          23   -0.0150   -0.0637    0.0887    0.0261    0.1262   -0.0278   -0.0909   -0.0574
          24    0.0051    0.0074   -0.0064   -0.0043   -0.0084    0.0023    0.0066    0.0029
          25    0.0685   -0.1583   -0.1556   -0.0891    0.2083    0.0451    0.1663   -0.0801
          26   -0.0147    0.0632    0.0882    0.0258   -0.1256   -0.0276   -0.0904    0.0572
          27   -0.0058    0.0108    0.0111    0.0056   -0.0151   -0.0037   -0.0114    0.0060
          28    0.1156   -0.1296   -0.0842    0.0627   -0.1865   -0.2555   -0.0535   -0.1374
          29   -0.0508    0.1213    0.0446   -0.0497    0.1170    0.1403    0.0321    0.0357
          30   -0.0075    0.0099    0.0058   -0.0044    0.0130    0.0171    0.0036    0.0083
          31   -0.1156   -0.1296    0.0842   -0.0627   -0.1865    0.2555    0.0535   -0.1374
          32   -0.0511   -0.1216    0.0448   -0.0499   -0.1175    0.1410    0.0323   -0.0361
          33    0.0048    0.0034   -0.0035    0.0018    0.0068   -0.0096   -0.0019    0.0064
          34   -0.0000    0.0561    0.0000    0.0000   -0.0051   -0.0000    0.0000   -0.0372
          35   -0.0374    0.0001    0.0021    0.4664   -0.0000   -0.0447    0.1742   -0.0001
          36   -0.0010   -0.0032    0.0001    0.0124    0.0002   -0.0012    0.0046    0.0020
          37   -0.1616   -0.0133   -0.1540    0.0098    0.0067    0.0029   -0.0701   -0.0578
          38    0.0704    0.0024    0.0680   -0.0099   -0.0017   -0.0064    0.0347    0.0081
          39   -0.0187   -0.0048   -0.0225    0.0019    0.0047    0.0033   -0.0094   -0.0216
          40    0.1616   -0.0133    0.1540   -0.0098    0.0067   -0.0029    0.0701   -0.0578
          41    0.0693   -0.0022    0.0667   -0.0098    0.0015   -0.0062    0.0341   -0.0069
          42    0.0224   -0.0049    0.0261   -0.0024    0.0048   -0.0036    0.0113   -0.0220


   Root No.      25        26        27        28        29        30        31        32

                12 A"     14 A'     15 A'     13 A"     16 A'     17 A'     14 A"     18 A'  

                1559.8    1594.0    1684.0    1697.5    1713.3    2752.5    2756.3    2770.4
  
           1   -0.0000   -0.0560   -0.0411   -0.0000    0.0080    0.0001   -0.0000    0.0008
           2   -0.0160   -0.0002   -0.0001   -0.0214   -0.0000    0.0000   -0.0004    0.0000
           3   -0.0004    0.0080    0.0056   -0.0006    0.0013   -0.0003   -0.0000   -0.0005
           4    0.0000    0.1252   -0.0039    0.0000    0.0543    0.0010    0.0000   -0.0000
           5    0.0584    0.0001   -0.0002    0.1596    0.0001   -0.0000    0.0022    0.0000
           6    0.0016   -0.0052    0.0067    0.0042   -0.0050    0.0000    0.0001   -0.0000
           7    0.0528   -0.0267   -0.0138   -0.0308   -0.1089   -0.0056   -0.0052   -0.0090
           8   -0.0153   -0.0449    0.0029   -0.0792   -0.0248    0.0056    0.0040    0.0174
           9   -0.0031    0.0001    0.0002   -0.0006    0.0049    0.0004    0.0003    0.0008
          10   -0.0528   -0.0267   -0.0138    0.0308   -0.1089   -0.0056    0.0052   -0.0090
          11   -0.0154    0.0448   -0.0029   -0.0791    0.0245   -0.0056    0.0040   -0.0174
          12    0.0023    0.0025    0.0001   -0.0036    0.0062    0.0001   -0.0001   -0.0001
          13   -0.0491   -0.0404    0.0215   -0.0408    0.1145   -0.0096   -0.0147   -0.0038
          14   -0.0255    0.0360   -0.0099    0.0763   -0.0377   -0.0183   -0.0227    0.0021
          15    0.0019    0.0029   -0.0016    0.0041   -0.0068    0.0000    0.0002    0.0002
          16    0.0491   -0.0404    0.0215    0.0408    0.1145   -0.0096    0.0147   -0.0038
          17   -0.0254   -0.0361    0.0100    0.0764    0.0380    0.0182   -0.0227   -0.0021
          18   -0.0032    0.0010   -0.0010   -0.0000   -0.0048    0.0010   -0.0014    0.0001
          19    0.0000    0.0390   -0.0118   -0.0000   -0.0542    0.0110   -0.0000   -0.0261
          20    0.0729    0.0001   -0.0000   -0.1380   -0.0001    0.0000   -0.0051   -0.0000
          21    0.0019   -0.0019    0.0006   -0.0037    0.0027   -0.0006   -0.0001    0.0013
          22   -0.0612    0.1184   -0.0160    0.0117    0.0137    0.0516    0.0439    0.1318
          23   -0.0699    0.0476   -0.0005   -0.0175    0.0304   -0.0914   -0.0781   -0.2298
          24    0.0016   -0.0048    0.0027   -0.0012   -0.0005   -0.0046   -0.0040   -0.0118
          25    0.0612    0.1184   -0.0160   -0.0117    0.0137    0.0516   -0.0439    0.1318
          26   -0.0698   -0.0473    0.0003   -0.0176   -0.0303    0.0915   -0.0782    0.2301
          27   -0.0053   -0.0073    0.0028    0.0002   -0.0021    0.0002   -0.0002    0.0004
          28    0.0423    0.0850   -0.0126    0.0281   -0.0231    0.1392    0.1850   -0.0005
          29   -0.0653   -0.0429    0.0086    0.0060    0.0266    0.2385    0.3188    0.0004
          30   -0.0039   -0.0053    0.0016   -0.0015    0.0017   -0.0011   -0.0014    0.0000
          31   -0.0423    0.0850   -0.0126   -0.0281   -0.0231    0.1391   -0.1850   -0.0005
          32   -0.0654    0.0431   -0.0086    0.0059   -0.0266   -0.2381    0.3183   -0.0004
          33    0.0004   -0.0030    0.0012    0.0018    0.0003   -0.0137    0.0183    0.0000
          34   -0.0000    0.0293   -0.0047    0.0000   -0.0195   -0.1554   -0.0000    0.3595
          35   -0.1543    0.0000   -0.0000    0.0284   -0.0000   -0.0002   -0.0012    0.0005
          36   -0.0041   -0.0014    0.0006    0.0008    0.0009    0.0079   -0.0000   -0.0182
          37   -0.0617   -0.0075    0.3186   -0.0905   -0.1043   -0.0029    0.0016   -0.0078
          38    0.0271   -0.0175   -0.2244    0.0507    0.0780   -0.0054    0.0031   -0.0143
          39   -0.0081   -0.0412   -0.0791   -0.0141    0.0099    0.0015   -0.0009    0.0033
          40    0.0617   -0.0075    0.3186    0.0905   -0.1043   -0.0029   -0.0016   -0.0078
          41    0.0267    0.0196    0.2283    0.0499   -0.0784    0.0054    0.0031    0.0141
          42    0.0095   -0.0402   -0.0671    0.0168    0.0057    0.0018    0.0010    0.0041


   Root No.      33        34        35        36

                15 A"     19 A'     16 A"     20 A'  

                2771.5    2777.8    2815.3    2834.2
  
           1    0.0000   -0.0010   -0.0000   -0.0259
           2    0.0033   -0.0000   -0.0477   -0.0003
           3    0.0001    0.0008   -0.0013    0.0102
           4   -0.0000   -0.0003   -0.0000   -0.0066
           5   -0.0040   -0.0000   -0.0047   -0.0000
           6   -0.0001    0.0000   -0.0001    0.0016
           7    0.0125    0.0067    0.0021   -0.0005
           8   -0.0224   -0.0121   -0.0016    0.0034
           9   -0.0011   -0.0006   -0.0002    0.0002
          10   -0.0125    0.0067   -0.0021   -0.0005
          11   -0.0224    0.0121   -0.0016   -0.0034
          12   -0.0001    0.0000    0.0001   -0.0000
          13   -0.0010   -0.0062    0.0001    0.0001
          14   -0.0073   -0.0096   -0.0006    0.0008
          15   -0.0001    0.0001   -0.0000   -0.0001
          16    0.0010   -0.0062   -0.0001    0.0001
          17   -0.0072    0.0095   -0.0006   -0.0008
          18   -0.0003    0.0006   -0.0000   -0.0001
          19    0.0000   -0.0202    0.0000    0.0015
          20    0.0007   -0.0000    0.0002    0.0000
          21    0.0000    0.0010    0.0000   -0.0001
          22   -0.1725   -0.0858   -0.0167    0.0172
          23    0.3023    0.1500    0.0322   -0.0322
          24    0.0155    0.0077    0.0016   -0.0014
          25    0.1725   -0.0858    0.0167    0.0173
          26    0.3027   -0.1502    0.0323    0.0323
          27    0.0006   -0.0003    0.0001    0.0003
          28    0.0427    0.0693    0.0022   -0.0047
          29    0.0728    0.1193    0.0042   -0.0080
          30   -0.0003   -0.0005    0.0000    0.0001
          31   -0.0427    0.0693   -0.0022   -0.0047
          32    0.0727   -0.1191    0.0041    0.0080
          33    0.0042   -0.0068    0.0002    0.0005
          34    0.0000    0.2569    0.0000   -0.0167
          35    0.0004    0.0003    0.0000   -0.0000
          36    0.0000   -0.0130    0.0000    0.0010
          37   -0.0154    0.0115    0.2322    0.2114
          38   -0.0248    0.0210    0.3498    0.3599
          39    0.0067   -0.0050   -0.0902   -0.0710
          40    0.0154    0.0115   -0.2322    0.2114
          41   -0.0244   -0.0207    0.3445   -0.3557
          42   -0.0080   -0.0061    0.1087   -0.0900


           MASS-WEIGHTED COORDINATE ANALYSIS (NORMAL COORDINATES)


   Root No.       1         2         3         4         5         6         7         8

                 1 A'      1 A"      2 A"      3 A"      2 A'      3 A'      4 A'      4 A"  

                 188.1     334.6     367.8     400.4     416.6     465.1     529.4     608.0
  
           1   -0.0049   -0.0000   -0.0000    0.0000   -0.2898    0.0301   -0.4371   -0.0000
           2   -0.0127   -0.0878   -0.0112    0.5573    0.0107    0.0044   -0.0028   -0.1081
           3    0.4800   -0.0023   -0.0003    0.0148   -0.4009   -0.1673    0.1055   -0.0029
           4   -0.0087    0.0000   -0.0000   -0.0000   -0.0165    0.0310   -0.3906   -0.0000
           5    0.0054    0.0051   -0.0324   -0.3683   -0.0012   -0.0133   -0.0009   -0.1497
           6   -0.2025    0.0001   -0.0009   -0.0098    0.0458    0.5021    0.0329   -0.0040
           7   -0.0169   -0.0098    0.0035   -0.1168    0.0311   -0.0002    0.0720    0.3307
           8    0.0111    0.0079   -0.0379   -0.2893   -0.0719    0.0041   -0.2611   -0.2801
           9   -0.4005   -0.2050    0.3340   -0.0393    0.0331    0.0723   -0.0159   -0.0239
          10   -0.0169    0.0098   -0.0035    0.1168    0.0312   -0.0002    0.0720   -0.3307
          11    0.0102   -0.0030   -0.0202   -0.2910    0.0700   -0.0079    0.2616   -0.2810
          12   -0.4005    0.2051   -0.3355    0.0239    0.0369    0.0720   -0.0020    0.0090
          13    0.0034    0.0203   -0.0262   -0.1625    0.0511   -0.0223    0.1273    0.3596
          14   -0.0003   -0.0044    0.0126    0.0401   -0.0239    0.0130   -0.2255    0.3387
          15   -0.0012    0.2876   -0.2754    0.0337   -0.0135   -0.3246   -0.0165   -0.0098
          16    0.0034   -0.0203    0.0262    0.1625    0.0511   -0.0223    0.1273   -0.3596
          17    0.0003    0.0109   -0.0021    0.0418    0.0246    0.0042    0.2261    0.3377
          18   -0.0012   -0.2875    0.2757   -0.0315   -0.0122   -0.3248   -0.0045    0.0278
          19    0.0252    0.0000    0.0000    0.0000    0.0844    0.0064    0.4819    0.0000
          20   -0.0112    0.0052    0.0196    0.1336   -0.0004   -0.0103    0.0005    0.1866
          21    0.4199    0.0001    0.0005    0.0035    0.0169    0.3883   -0.0209    0.0050
          22   -0.0099   -0.0026    0.0090   -0.0910    0.0129   -0.0072    0.0884    0.0516
          23    0.0050    0.0064   -0.0153   -0.1106   -0.0119    0.0019   -0.0327   -0.0974
          24   -0.2078   -0.1523    0.2685   -0.0324   -0.0120   -0.0754   -0.0040   -0.0035
          25   -0.0099    0.0026   -0.0090    0.0910    0.0129   -0.0072    0.0884   -0.0516
          26    0.0060   -0.0017   -0.0010   -0.1121    0.0125    0.0021    0.0329   -0.0975
          27   -0.2078    0.1525   -0.2690    0.0264   -0.0113   -0.0754   -0.0023   -0.0017
          28    0.0016    0.0125   -0.0214   -0.1007    0.0026   -0.0177   -0.0256    0.0602
          29   -0.0003   -0.0046    0.0110    0.0416   -0.0004    0.0090   -0.0249    0.1124
          30    0.0084    0.2192   -0.2176    0.0260   -0.0193   -0.3339   -0.0033    0.0002
          31    0.0016   -0.0125    0.0214    0.1007    0.0026   -0.0177   -0.0256   -0.0602
          32   -0.0001    0.0071   -0.0006    0.0429    0.0014    0.0087    0.0250    0.1122
          33    0.0084   -0.2191    0.2179   -0.0237   -0.0193   -0.3339   -0.0019    0.0058
          34    0.0154   -0.0000    0.0000    0.0000    0.0267    0.0115    0.1319   -0.0000
          35   -0.0075   -0.0005    0.0086    0.0881   -0.0003   -0.0080    0.0001   -0.0814
          36    0.2819   -0.0000    0.0002    0.0023    0.0101    0.3002   -0.0034   -0.0022
          37    0.0279    0.0112   -0.0112   -0.1901    0.1103   -0.0239   -0.1593    0.0036
          38   -0.0064    0.1086    0.1127    0.2529    0.0339    0.0052   -0.0095   -0.0352
          39    0.1752    0.5361    0.4199   -0.0411    0.5895   -0.0940   -0.1431   -0.0066
          40    0.0279   -0.0112    0.0112    0.1901    0.1103   -0.0239   -0.1593   -0.0036
          41   -0.0029    0.1369    0.1348    0.2504   -0.0651   -0.0002    0.0171   -0.0355
          42    0.1753   -0.5295   -0.4133    0.0545    0.5869   -0.0941   -0.1424    0.0048


   Root No.       9        10        11        12        13        14        15        16

                 5 A'      6 A'      7 A'      5 A"      8 A'      6 A"      9 A'     10 A'  

                 628.7     813.4     865.5     884.0     950.5    1010.6    1040.4    1067.4
  
           1    0.0089   -0.0033   -0.3707    0.0000   -0.0107    0.0000   -0.0007    0.3265
           2    0.0025    0.0016   -0.0012    0.0077   -0.0013    0.0034    0.0004    0.0004
           3   -0.0945   -0.0599    0.0469    0.0002    0.0498    0.0001   -0.0136   -0.0162
           4    0.0301    0.0142   -0.1388   -0.0000   -0.0199   -0.0000    0.0076   -0.0189
           5   -0.0151   -0.0087   -0.0002   -0.0010    0.0074   -0.0005   -0.0024    0.0001
           6    0.5681    0.3281    0.0062   -0.0000   -0.2801   -0.0000    0.0895   -0.0045
           7   -0.0099   -0.0017    0.2186   -0.0154    0.0217   -0.0136   -0.0115    0.0687
           8    0.0051    0.0007   -0.0651    0.0043   -0.0110    0.0051    0.0102   -0.5545
           9   -0.1912   -0.1279   -0.0174   -0.2748    0.3302   -0.2682   -0.1937   -0.0219
          10   -0.0099   -0.0017    0.2186    0.0154    0.0217    0.0136   -0.0115    0.0687
          11    0.0051    0.0061    0.0659   -0.0103   -0.0065   -0.0092    0.0001    0.5548
          12   -0.1912   -0.1278   -0.0139    0.2746    0.3303    0.2681   -0.1940    0.0076
          13    0.0105   -0.0019    0.2550   -0.0110    0.0062    0.0164    0.0165   -0.0755
          14   -0.0023    0.0140    0.4159    0.0036    0.0097   -0.0096   -0.0110    0.0263
          15    0.2069   -0.1430    0.0024   -0.1796   -0.0026    0.3390    0.3430    0.0076
          16    0.0105   -0.0019    0.2550    0.0110    0.0062   -0.0164    0.0165   -0.0755
          17   -0.0087   -0.0064   -0.4155   -0.0060   -0.0096    0.0084   -0.0072   -0.0267
          18    0.2067   -0.1436   -0.0196    0.1796   -0.0031   -0.3390    0.3431    0.0062
          19   -0.0149   -0.0232   -0.4105    0.0000   -0.0223    0.0000   -0.0165   -0.1984
          20    0.0051    0.0061   -0.0008    0.0014    0.0082    0.0012    0.0100   -0.0002
          21   -0.1908   -0.2295    0.0320    0.0000   -0.3070    0.0000   -0.3780    0.0080
          22   -0.0245    0.0081    0.0355    0.0255   -0.0212    0.0177    0.0102   -0.0741
          23    0.0087   -0.0048   -0.0284   -0.0111    0.0081   -0.0066   -0.0020   -0.1980
          24   -0.4319    0.1636    0.0076    0.4974   -0.4309    0.3209    0.1909    0.0011
          25   -0.0245    0.0081    0.0355   -0.0255   -0.0212   -0.0177    0.0102   -0.0741
          26    0.0143   -0.0039    0.0280    0.0153    0.0148    0.0105   -0.0081    0.1976
          27   -0.4317    0.1637    0.0091   -0.4973   -0.4307   -0.3208    0.1908    0.0116
          28    0.0042    0.0263    0.1315    0.0183    0.0018   -0.0254   -0.0200   -0.2029
          29   -0.0016   -0.0099    0.0728   -0.0095    0.0026    0.0124    0.0091    0.1028
          30    0.0779    0.4512   -0.0176    0.3779   -0.0147   -0.4566   -0.3877    0.0098
          31    0.0042    0.0263    0.1315   -0.0183    0.0018    0.0254   -0.0200   -0.2029
          32   -0.0026   -0.0140   -0.0718    0.0105   -0.0018   -0.0119    0.0115   -0.1031
          33    0.0779    0.4510   -0.0214   -0.3778   -0.0148    0.4566   -0.3877    0.0043
          34   -0.0157    0.0248   -0.1046    0.0000    0.0225    0.0000    0.0212   -0.0582
          35    0.0076   -0.0145    0.0004    0.0017   -0.0127    0.0016   -0.0107   -0.0001
          36   -0.2857    0.5453   -0.0152    0.0000    0.4801    0.0000    0.4018    0.0047
          37   -0.0166   -0.0124   -0.1104    0.0002    0.0047    0.0007   -0.0014    0.0963
          38    0.0066    0.0058   -0.0023   -0.0037   -0.0062   -0.0013    0.0021   -0.0070
          39   -0.0322   -0.0095   -0.0511   -0.0206   -0.0041   -0.0062    0.0043    0.0091
          40   -0.0166   -0.0124   -0.1104   -0.0002    0.0047   -0.0007   -0.0014    0.0963
          41   -0.0049   -0.0052    0.0050   -0.0048    0.0064   -0.0016   -0.0023    0.0065
          42   -0.0326   -0.0098   -0.0509    0.0204   -0.0038    0.0061    0.0042    0.0095


   Root No.      17        18        19        20        21        22        23        24

                 7 A"     11 A'      8 A"      9 A"     12 A'     10 A"     11 A"     13 A'  

                1133.6    1184.0    1215.5    1224.8    1271.2    1345.4    1388.0    1433.4
  
           1   -0.0000   -0.0735   -0.0000   -0.0000    0.0267   -0.0000   -0.0000   -0.3645
           2   -0.2576   -0.0003   -0.2732   -0.0131    0.0002   -0.0161   -0.1145   -0.0010
           3   -0.0068    0.0096   -0.0073   -0.0003   -0.0083   -0.0004   -0.0030    0.0390
           4   -0.0000    0.0758    0.0000   -0.0000   -0.0600   -0.0000    0.0000    0.4627
           5   -0.3264    0.0001    0.0830   -0.0634   -0.0001   -0.1030    0.2892    0.0006
           6   -0.0087   -0.0043    0.0022   -0.0017    0.0057   -0.0027    0.0077   -0.0224
           7    0.0619   -0.1300   -0.0556    0.2707    0.0227    0.3234   -0.0538    0.2709
           8    0.2593    0.1104   -0.0242   -0.0220    0.0606    0.1517    0.0246    0.0994
           9    0.0025    0.0092    0.0014   -0.0128    0.0005   -0.0113    0.0023   -0.0097
          10   -0.0619   -0.1300    0.0556   -0.2707    0.0227   -0.3234    0.0538    0.2709
          11    0.2591   -0.1107   -0.0241   -0.0227   -0.0606    0.1509    0.0247   -0.0988
          12    0.0113    0.0034   -0.0027    0.0116   -0.0027    0.0193   -0.0010   -0.0150
          13   -0.0478    0.0742    0.0842   -0.1595   -0.0101   -0.1645    0.3127   -0.0175
          14    0.1739    0.3056   -0.1071   -0.0218    0.0609    0.0402   -0.1761   -0.3021
          15    0.0074    0.0039   -0.0074    0.0071    0.0016    0.0089   -0.0200   -0.0075
          16    0.0478    0.0742   -0.0842    0.1595   -0.0101    0.1645   -0.3127   -0.0175
          17    0.1741   -0.3053   -0.1073   -0.0214   -0.0609    0.0406   -0.1769    0.3021
          18    0.0019   -0.0123    0.0017   -0.0082   -0.0016   -0.0068    0.0107    0.0086
          19   -0.0000    0.4427    0.0000   -0.0000   -0.0259   -0.0000    0.0000   -0.2644
          20   -0.2423    0.0006    0.1890   -0.0413   -0.0000   -0.3490    0.0551   -0.0004
          21   -0.0064   -0.0215    0.0050   -0.0011    0.0017   -0.0093    0.0015    0.0135
          22   -0.1575   -0.3277    0.3805    0.1595    0.4432   -0.0795   -0.3786   -0.1465
          23   -0.0345   -0.1318    0.2169    0.0467    0.2685   -0.0490   -0.2069   -0.1050
          24    0.0116    0.0154   -0.0156   -0.0076   -0.0178    0.0040    0.0150    0.0053
          25    0.1575   -0.3277   -0.3805   -0.1595    0.4432    0.0795    0.3786   -0.1465
          26   -0.0338    0.1308    0.2158    0.0462   -0.2672   -0.0487   -0.2058    0.1046
          27   -0.0134    0.0224    0.0271    0.0101   -0.0321   -0.0066   -0.0259    0.0109
          28    0.2657   -0.2683   -0.2059    0.1121   -0.3968   -0.4506   -0.1217   -0.2513
          29   -0.1167    0.2511    0.1090   -0.0890    0.2489    0.2474    0.0731    0.0654
          30   -0.0173    0.0205    0.0143   -0.0079    0.0276    0.0301    0.0082    0.0152
          31   -0.2657   -0.2683    0.2059   -0.1121   -0.3968    0.4506    0.1217   -0.2513
          32   -0.1175   -0.2518    0.1096   -0.0893   -0.2500    0.2486    0.0734   -0.0661
          33    0.0111    0.0071   -0.0085    0.0031    0.0144   -0.0169   -0.0043    0.0117
          34   -0.0000    0.1162    0.0000    0.0000   -0.0107   -0.0000    0.0000   -0.0681
          35   -0.0860    0.0002    0.0051    0.8343   -0.0000   -0.0788    0.3964   -0.0001
          36   -0.0023   -0.0066    0.0001    0.0222    0.0004   -0.0021    0.0105    0.0037
          37   -0.3715   -0.0275   -0.3765    0.0175    0.0142    0.0051   -0.1596   -0.1058
          38    0.1619    0.0050    0.1663   -0.0178   -0.0036   -0.0113    0.0789    0.0147
          39   -0.0430   -0.0100   -0.0551    0.0034    0.0100    0.0058   -0.0215   -0.0396
          40    0.3715   -0.0275    0.3765   -0.0175    0.0142   -0.0051    0.1596   -0.1058
          41    0.1593   -0.0045    0.1631   -0.0176    0.0031   -0.0110    0.0777   -0.0126
          42    0.0515   -0.0102    0.0638   -0.0044    0.0102   -0.0064    0.0256   -0.0403


   Root No.      25        26        27        28        29        30        31        32

                12 A"     14 A'     15 A'     13 A"     16 A'     17 A'     14 A"     18 A'  

                1559.8    1594.0    1684.0    1697.5    1713.3    2752.5    2756.3    2770.4
  
           1   -0.0000   -0.3146   -0.2549   -0.0000    0.0345    0.0010   -0.0000    0.0058
           2   -0.1060   -0.0012   -0.0009   -0.0836   -0.0001    0.0001   -0.0024    0.0001
           3   -0.0028    0.0449    0.0347   -0.0022    0.0054   -0.0021   -0.0001   -0.0035
           4    0.0000    0.6511   -0.0221    0.0000    0.2158    0.0072    0.0000   -0.0000
           5    0.3590    0.0007   -0.0010    0.5765    0.0005   -0.0000    0.0139    0.0000
           6    0.0095   -0.0269    0.0387    0.0153   -0.0199    0.0001    0.0004   -0.0001
           7    0.3244   -0.1388   -0.0794   -0.1112   -0.4323   -0.0423   -0.0323   -0.0580
           8   -0.0938   -0.2335    0.0165   -0.2860   -0.0984    0.0416    0.0249    0.1116
           9   -0.0190    0.0005    0.0012   -0.0023    0.0196    0.0029    0.0021    0.0054
          10   -0.3244   -0.1388   -0.0794    0.1112   -0.4323   -0.0423    0.0323   -0.0580
          11   -0.0947    0.2332   -0.0165   -0.2857    0.0972   -0.0417    0.0250   -0.1117
          12    0.0140    0.0129    0.0003   -0.0129    0.0248    0.0007   -0.0008   -0.0006
          13   -0.3021   -0.2103    0.1235   -0.1473    0.4545   -0.0723   -0.0915   -0.0247
          14   -0.1568    0.1870   -0.0569    0.2757   -0.1498   -0.1370   -0.1418    0.0136
          15    0.0116    0.0150   -0.0090    0.0147   -0.0271    0.0003    0.0011    0.0016
          16    0.3021   -0.2103    0.1235    0.1473    0.4545   -0.0723    0.0915   -0.0247
          17   -0.1560   -0.1875    0.0572    0.2761    0.1511    0.1368   -0.1415   -0.0137
          18   -0.0199    0.0051   -0.0059   -0.0001   -0.0192    0.0075   -0.0086    0.0009
          19    0.0000    0.2030   -0.0680   -0.0000   -0.2153    0.0822   -0.0000   -0.1680
          20    0.4481    0.0003   -0.0001   -0.4984   -0.0003    0.0001   -0.0320   -0.0002
          21    0.0119   -0.0100    0.0035   -0.0132    0.0108   -0.0042   -0.0009    0.0085
          22   -0.1089    0.1784   -0.0266    0.0123    0.0158    0.1120    0.0792    0.2454
          23   -0.1245    0.0717   -0.0008   -0.0183    0.0349   -0.1984   -0.1411   -0.4278
          24    0.0028   -0.0072    0.0046   -0.0012   -0.0006   -0.0100   -0.0072   -0.0220
          25    0.1089    0.1784   -0.0266   -0.0123    0.0158    0.1120   -0.0792    0.2454
          26   -0.1242   -0.0712    0.0005   -0.0184   -0.0349    0.1987   -0.1412    0.4284
          27   -0.0094   -0.0110    0.0046    0.0003   -0.0024    0.0005   -0.0003    0.0008
          28    0.0754    0.1281   -0.0209    0.0294   -0.0266    0.3022    0.3341   -0.0010
          29   -0.1162   -0.0647    0.0142    0.0063    0.0305    0.5181    0.5756    0.0007
          30   -0.0069   -0.0079    0.0027   -0.0016    0.0019   -0.0023   -0.0025    0.0001
          31   -0.0754    0.1281   -0.0209   -0.0294   -0.0266    0.3022   -0.3341   -0.0010
          32   -0.1164    0.0650   -0.0143    0.0062   -0.0306   -0.5172    0.5747   -0.0007
          33    0.0007   -0.0045    0.0019    0.0019    0.0003   -0.0298    0.0330    0.0000
          34   -0.0000    0.0441   -0.0079    0.0000   -0.0224   -0.3375   -0.0000    0.6692
          35   -0.2747    0.0001   -0.0000    0.0297   -0.0000   -0.0005   -0.0022    0.0009
          36   -0.0073   -0.0021    0.0009    0.0008    0.0010    0.0171   -0.0001   -0.0339
          37   -0.1100   -0.0113    0.5297   -0.0947   -0.1200   -0.0063    0.0030   -0.0145
          38    0.0483   -0.0263   -0.3731    0.0531    0.0897   -0.0118    0.0056   -0.0266
          39   -0.0144   -0.0620   -0.1316   -0.0148    0.0113    0.0033   -0.0016    0.0062
          40    0.1100   -0.0113    0.5297    0.0947   -0.1200   -0.0063   -0.0030   -0.0145
          41    0.0475    0.0296    0.3795    0.0522   -0.0901    0.0116    0.0055    0.0262
          42    0.0169   -0.0606   -0.1116    0.0176    0.0066    0.0039    0.0019    0.0076


   Root No.      33        34        35        36

                15 A"     19 A'     16 A"     20 A'  

                2771.5    2777.8    2815.3    2834.2
  
           1    0.0000   -0.0092   -0.0000   -0.1581
           2    0.0231   -0.0002   -0.2799   -0.0017
           3    0.0006    0.0067   -0.0074    0.0625
           4   -0.0000   -0.0021   -0.0000   -0.0371
           5   -0.0261   -0.0000   -0.0253   -0.0002
           6   -0.0007    0.0002   -0.0007    0.0092
           7    0.0821    0.0545    0.0114   -0.0029
           8   -0.1472   -0.0987   -0.0087    0.0190
           9   -0.0074   -0.0050   -0.0009    0.0009
          10   -0.0821    0.0545   -0.0114   -0.0029
          11   -0.1474    0.0988   -0.0087   -0.0190
          12   -0.0004    0.0003    0.0005   -0.0001
          13   -0.0067   -0.0505    0.0003    0.0003
          14   -0.0476   -0.0783   -0.0031    0.0046
          15   -0.0008    0.0005   -0.0001   -0.0003
          16    0.0067   -0.0505   -0.0003    0.0003
          17   -0.0476    0.0781   -0.0031   -0.0046
          18   -0.0017    0.0047   -0.0000   -0.0006
          19    0.0000   -0.1655    0.0000    0.0087
          20    0.0043   -0.0002    0.0013    0.0000
          21    0.0001    0.0084    0.0000   -0.0004
          22   -0.3282   -0.2035   -0.0263    0.0282
          23    0.5753    0.3557    0.0507   -0.0527
          24    0.0294    0.0183    0.0026   -0.0023
          25    0.3282   -0.2035    0.0263    0.0282
          26    0.5760   -0.3561    0.0508    0.0528
          27    0.0011   -0.0006    0.0001    0.0005
          28    0.0813    0.1645    0.0035   -0.0078
          29    0.1386    0.2830    0.0065   -0.0131
          30   -0.0007   -0.0012    0.0000    0.0001
          31   -0.0813    0.1644   -0.0035   -0.0078
          32    0.1384   -0.2825    0.0065    0.0130
          33    0.0080   -0.0162    0.0003    0.0008
          34    0.0000    0.6092    0.0000   -0.0274
          35    0.0007    0.0008    0.0000   -0.0000
          36    0.0000   -0.0309    0.0000    0.0016
          37   -0.0294    0.0272    0.3655    0.3460
          38   -0.0472    0.0497    0.5506    0.5891
          39    0.0128   -0.0118   -0.1420   -0.1162
          40    0.0294    0.0272   -0.3654    0.3460
          41   -0.0465   -0.0490    0.5423   -0.5821
          42   -0.0153   -0.0144    0.1711   -0.1473


          DESCRIPTION OF VIBRATIONS


 VIBRATION          1    1A'          ATOM PAIR      ENERGY CONTRIBUTION    RADIAL
 FREQUENCY           188.15         C  6 -- C  7         +12.6% (128.5%)      0.0%
 TRANSITION DIPOLE   0.1225         C  5 -- C  7         +12.6% (128.5%)      0.0%
 TRAVEL (Ang.)       0.4493         C  4 -- C  6         +11.2% (121.4%)      0.0%
 REDUCED MASS        1.7750         C  3 -- C  5         +11.2% (121.4%)      0.0%
 EFFECTIVE MASS     29.9533         N  1 -- C  2         +10.8% (119.4%)      0.0%
 FORCE CONSTANT      0.0370

 VIBRATION          2    1A"          ATOM PAIR      ENERGY CONTRIBUTION    RADIAL
 FREQUENCY           334.56         N  1 -- H 14         +18.8% ( 83.6%)      0.9%
 TRANSITION DIPOLE   0.3034         N  1 -- H 13         +18.8% ( 83.6%)      0.9%
 TRAVEL (Ang.)       0.7133         C  4 -- C  6         +14.6% ( 73.7%)      0.0%
 REDUCED MASS        0.3961         C  3 -- C  5         +14.6% ( 73.7%)      0.0%
 EFFECTIVE MASS      9.0046
 FORCE CONSTANT      0.0261

 VIBRATION          3    2A"          ATOM PAIR      ENERGY CONTRIBUTION    RADIAL
 FREQUENCY           367.82         C  3 -- C  5         +18.1% ( 83.0%)      0.0%
 TRANSITION DIPOLE   0.2601         C  4 -- C  6         +18.1% ( 83.0%)      0.0%
 TRAVEL (Ang.)       0.5852         N  1 -- H 14         +11.5% ( 66.2%)      0.0%
 REDUCED MASS        0.5353         N  1 -- H 13         +11.5% ( 66.2%)      0.0%
 EFFECTIVE MASS     10.7126
 FORCE CONSTANT      0.0427

 VIBRATION          4    3A"          ATOM PAIR      ENERGY CONTRIBUTION    RADIAL
 FREQUENCY           400.36         N  1 -- C  2         +24.2% (193.1%)      0.0%
 TRANSITION DIPOLE   0.2045         N  1 -- H 13         +10.6% (127.6%)     86.5%
 TRAVEL (Ang.)       0.3013         N  1 -- H 14         +10.6% (127.6%)     86.5%
 REDUCED MASS        1.8557         C  2 -- C  4          +9.2% (119.0%)      0.5%
 EFFECTIVE MASS     30.5831
 FORCE CONSTANT      0.1753

 VIBRATION          5    2A'          ATOM PAIR      ENERGY CONTRIBUTION    RADIAL
 FREQUENCY           416.62         N  1 -- H 14         +30.3% ( 85.1%)      0.0%
 TRANSITION DIPOLE   2.1982         N  1 -- H 13         +30.3% ( 85.1%)      0.0%
 TRAVEL (Ang.)       0.3828         N  1 -- C  2         +17.6% ( 65.0%)     27.2%
 REDUCED MASS        1.1044         C  5 -- C  7          +2.6% ( 24.8%)      1.0%
 EFFECTIVE MASS      6.1421
 FORCE CONSTANT      0.1129

 VIBRATION          6    3A'          ATOM PAIR      ENERGY CONTRIBUTION    RADIAL
 FREQUENCY           465.14         C  5 -- C  7         +17.5% ( 76.6%)      0.0%
 TRANSITION DIPOLE   0.3521         C  6 -- C  7         +17.5% ( 76.6%)      0.0%
 TRAVEL (Ang.)       0.3265         N  1 -- C  2         +14.0% ( 68.4%)      0.0%
 REDUCED MASS        1.3595         C  2 -- C  3         +10.5% ( 59.4%)      0.0%
 EFFECTIVE MASS     12.5545         C  2 -- C  4         +10.5% ( 59.4%)      0.0%
 FORCE CONSTANT      0.1733

 VIBRATION          7    4A'          ATOM PAIR      ENERGY CONTRIBUTION    RADIAL
 FREQUENCY           529.41         C  2 -- C  3         +10.9% (107.1%)      0.0%
 TRANSITION DIPOLE   1.0434         C  2 -- C  4         +10.9% (107.1%)      0.0%
 TRAVEL (Ang.)       0.2698         C  6 -- C  7         +10.2% (103.7%)      0.2%
 REDUCED MASS        1.7499         C  5 -- C  7         +10.2% (103.7%)      0.2%
 EFFECTIVE MASS     18.2986
 FORCE CONSTANT      0.2890

 VIBRATION          8    4A"          ATOM PAIR      ENERGY CONTRIBUTION    RADIAL
 FREQUENCY           608.01         C  4 -- C  6         +13.0% (104.5%)      0.1%
 TRANSITION DIPOLE   0.0009         C  3 -- C  5         +13.0% (104.5%)      0.1%
 TRAVEL (Ang.)       0.2192         C  6 -- C  7         +10.8% ( 95.2%)      1.6%
 REDUCED MASS        2.3073         C  5 -- C  7         +10.8% ( 95.2%)      1.6%
 EFFECTIVE MASS     17.9614
 FORCE CONSTANT      0.5025

 VIBRATION          9    5A'          ATOM PAIR      ENERGY CONTRIBUTION    RADIAL
 FREQUENCY           628.73         C  2 -- C  3         +20.2% ( 63.2%)      0.0%
 TRANSITION DIPOLE   0.1761         C  2 -- C  4         +20.2% ( 63.2%)      0.0%
 TRAVEL (Ang.)       0.2737         N  1 -- C  2         +15.1% ( 54.7%)      0.1%
 REDUCED MASS        1.4315         C  3 -- H  8          +9.3% ( 42.9%)      0.0%
 EFFECTIVE MASS      8.5901
 FORCE CONSTANT      0.3334

 VIBRATION         10    6A'          ATOM PAIR      ENERGY CONTRIBUTION    RADIAL
 FREQUENCY           813.37         C  7 -- H 12         +31.1% ( 66.3%)      0.0%
 TRANSITION DIPOLE   1.0982         C  5 -- H 10         +20.2% ( 53.4%)      0.0%
 TRAVEL (Ang.)       0.4759         C  6 -- H 11         +20.2% ( 53.4%)      0.0%
 REDUCED MASS        0.3661         C  2 -- C  3          +6.0% ( 29.1%)      0.0%
 EFFECTIVE MASS      2.9319
 FORCE CONSTANT      0.1427

 VIBRATION         11    7A'          ATOM PAIR      ENERGY CONTRIBUTION    RADIAL
 FREQUENCY           865.50         C  6 -- C  7         +16.1% ( 82.4%)      0.1%
 TRANSITION DIPOLE   0.3217         C  5 -- C  7         +16.1% ( 82.4%)      0.1%
 TRAVEL (Ang.)       0.1949         C  3 -- C  5          +9.6% ( 63.5%)      0.4%
 REDUCED MASS        2.0512         C  4 -- C  6          +9.6% ( 63.5%)      0.4%
 EFFECTIVE MASS     14.3347
 FORCE CONSTANT      0.9053

 VIBRATION         12    5A"          ATOM PAIR      ENERGY CONTRIBUTION    RADIAL
 FREQUENCY           883.98         C  3 -- H  8         +28.0% ( 58.5%)      0.0%
 TRANSITION DIPOLE   0.0048         C  4 -- H  9         +28.0% ( 58.5%)      0.0%
 TRAVEL (Ang.)       0.4818         C  5 -- H 10         +16.1% ( 44.4%)      0.0%
 REDUCED MASS        0.3285         C  6 -- H 11         +16.1% ( 44.4%)      0.0%
 EFFECTIVE MASS      2.3759
 FORCE CONSTANT      0.1513

 VIBRATION         13    8A'          ATOM PAIR      ENERGY CONTRIBUTION    RADIAL
 FREQUENCY           950.55         C  7 -- H 12         +24.8% ( 55.3%)      0.0%
 TRANSITION DIPOLE   0.6329         C  4 -- H  9         +21.9% ( 52.0%)      0.0%
 TRAVEL (Ang.)       0.3452         C  3 -- H  8         +21.9% ( 52.0%)      0.0%
 REDUCED MASS        0.5953         C  2 -- C  4          +8.3% ( 32.1%)      0.0%
 EFFECTIVE MASS      4.2251
 FORCE CONSTANT      0.3169

 VIBRATION         14    6A"          ATOM PAIR      ENERGY CONTRIBUTION    RADIAL
 FREQUENCY          1010.63         C  6 -- H 11         +24.6% ( 53.1%)      0.0%
 TRANSITION DIPOLE   0.0006         C  5 -- H 10         +24.6% ( 53.1%)      0.0%
 TRAVEL (Ang.)       0.3471         C  3 -- H  8         +12.2% ( 37.5%)      0.0%
 REDUCED MASS        0.5539         C  4 -- H  9         +12.2% ( 37.5%)      0.0%
 EFFECTIVE MASS      3.8871
 FORCE CONSTANT      0.3333

 VIBRATION         15    9A'          ATOM PAIR      ENERGY CONTRIBUTION    RADIAL
 FREQUENCY          1040.43         C  7 -- H 12         +19.5% ( 48.2%)      0.0%
 TRANSITION DIPOLE   0.4819         C  6 -- H 11         +18.2% ( 46.6%)      0.0%
 TRAVEL (Ang.)       0.3062         C  5 -- H 10         +18.2% ( 46.6%)      0.0%
 REDUCED MASS        0.6913         C  6 -- C  7         +10.1% ( 34.6%)      0.0%
 EFFECTIVE MASS      5.0315         C  5 -- C  7         +10.1% ( 34.6%)      0.0%
 FORCE CONSTANT      0.4409

 VIBRATION         16   10A'          ATOM PAIR      ENERGY CONTRIBUTION    RADIAL
 FREQUENCY          1067.35         C  3 -- C  5         +14.6% ( 63.7%)      6.3%
 TRANSITION DIPOLE   0.3558         C  4 -- C  6         +14.6% ( 63.7%)      6.3%
 TRAVEL (Ang.)       0.1578         C  2 -- C  4         +13.3% ( 60.8%)     60.6%
 REDUCED MASS        2.5369         C  2 -- C  3         +13.3% ( 60.8%)     60.6%
 EFFECTIVE MASS     11.7851         C  3 -- H  8         +11.1% ( 55.4%)     98.1%
 FORCE CONSTANT      1.7028         C  4 -- H  9         +11.1% ( 55.4%)     98.1%

 VIBRATION         17    7A"          ATOM PAIR      ENERGY CONTRIBUTION    RADIAL
 FREQUENCY          1133.63         N  1 -- H 14         +12.9% ( 56.8%)     11.0%
 TRANSITION DIPOLE   0.3433         N  1 -- H 13         +12.9% ( 56.8%)     11.0%
 TRAVEL (Ang.)       0.3603         C  2 -- C  3         +11.9% ( 54.7%)     83.6%
 REDUCED MASS        0.4581         C  2 -- C  4         +11.9% ( 54.7%)     83.6%
 EFFECTIVE MASS      6.6321
 FORCE CONSTANT      0.3468

 VIBRATION         18   11A'          ATOM PAIR      ENERGY CONTRIBUTION    RADIAL
 FREQUENCY          1184.00         C  6 -- C  7         +18.0% ( 59.3%)     88.0%
 TRANSITION DIPOLE   0.0887         C  5 -- C  7         +18.0% ( 59.3%)     88.0%
 TRAVEL (Ang.)       0.2688         C  6 -- H 11         +10.6% ( 45.4%)     39.8%
 REDUCED MASS        0.7883         C  5 -- H 10         +10.6% ( 45.4%)     39.8%
 EFFECTIVE MASS      7.2710
 FORCE CONSTANT      0.6511

 VIBRATION         19    8A"          ATOM PAIR      ENERGY CONTRIBUTION    RADIAL
 FREQUENCY          1215.51         N  1 -- H 14         +19.1% ( 54.3%)     12.3%
 TRANSITION DIPOLE   0.0388         N  1 -- H 13         +19.1% ( 54.3%)     12.3%
 TRAVEL (Ang.)       0.4778         C  4 -- H  9         +14.3% ( 47.0%)      0.0%
 REDUCED MASS        0.2430         C  3 -- H  8         +14.3% ( 47.0%)      0.0%
 EFFECTIVE MASS      2.8687
 FORCE CONSTANT      0.2115

 VIBRATION         20    9A"          ATOM PAIR      ENERGY CONTRIBUTION    RADIAL
 FREQUENCY          1224.75         C  7 -- H 12         +47.4% ( 85.9%)      0.0%
 TRANSITION DIPOLE   0.4578         C  4 -- C  6         +10.0% ( 39.4%)    100.0%
 TRAVEL (Ang.)       0.2935         C  3 -- C  5         +10.0% ( 39.4%)    100.0%
 REDUCED MASS        0.6392         C  4 -- H  9          +5.6% ( 29.5%)     77.3%
 EFFECTIVE MASS      3.6165
 FORCE CONSTANT      0.5650

 VIBRATION         21   12A'          ATOM PAIR      ENERGY CONTRIBUTION    RADIAL
 FREQUENCY          1271.24         C  3 -- H  8         +26.4% ( 50.9%)      0.4%
 TRANSITION DIPOLE   0.1310         C  4 -- H  9         +26.4% ( 50.9%)      0.4%
 TRAVEL (Ang.)       0.4658         C  6 -- H 11         +21.3% ( 45.8%)      0.5%
 REDUCED MASS        0.2444         C  5 -- H 10         +21.3% ( 45.8%)      0.5%
 EFFECTIVE MASS      1.2612
 FORCE CONSTANT      0.2327

 VIBRATION         22   10A"          ATOM PAIR      ENERGY CONTRIBUTION    RADIAL
 FREQUENCY          1345.44         C  6 -- H 11         +12.9% ( 47.9%)      1.0%
 TRANSITION DIPOLE   0.6178         C  5 -- H 10         +12.9% ( 47.9%)      1.0%
 TRAVEL (Ang.)       0.2614         C  4 -- C  6         +10.3% ( 42.7%)     94.6%
 REDUCED MASS        0.7335         C  3 -- C  5         +10.3% ( 42.7%)     94.6%
 EFFECTIVE MASS      5.4463
 FORCE CONSTANT      0.7823

 VIBRATION         23   11A"          ATOM PAIR      ENERGY CONTRIBUTION    RADIAL
 FREQUENCY          1387.97         C  3 -- H  8         +10.0% ( 39.0%)      1.0%
 TRANSITION DIPOLE   0.3410         C  4 -- H  9         +10.0% ( 39.0%)      1.0%
 TRAVEL (Ang.)       0.2880         C  5 -- H 10          +9.3% ( 37.5%)      0.0%
 REDUCED MASS        0.5858         C  6 -- H 11          +9.3% ( 37.5%)      0.0%
 EFFECTIVE MASS      4.2622
 FORCE CONSTANT      0.6649

 VIBRATION         24   13A'          ATOM PAIR      ENERGY CONTRIBUTION    RADIAL
 FREQUENCY          1433.36         N  1 -- C  2         +19.4% ( 61.8%)     99.5%
 TRANSITION DIPOLE   0.8381         C  2 -- C  4         +10.1% ( 44.5%)      0.2%
 TRAVEL (Ang.)       0.1944         C  2 -- C  3         +10.1% ( 44.5%)      0.2%
 REDUCED MASS        1.2454         C  4 -- C  6          +7.6% ( 38.6%)     33.1%
 EFFECTIVE MASS      9.7218
 FORCE CONSTANT      1.5076

 VIBRATION         25   12A"          ATOM PAIR      ENERGY CONTRIBUTION    RADIAL
 FREQUENCY          1559.81         C  6 -- C  7         +12.0% ( 47.5%)     30.1%
 TRANSITION DIPOLE   0.3031         C  5 -- C  7         +12.0% ( 47.5%)     30.1%
 TRAVEL (Ang.)       0.1801         C  3 -- C  5         +11.5% ( 46.6%)     98.8%
 REDUCED MASS        1.3326         C  4 -- C  6         +11.5% ( 46.6%)     98.8%
 EFFECTIVE MASS      9.6101         C  7 -- H 12         +11.0% ( 45.5%)      0.0%
 FORCE CONSTANT      1.9103

 VIBRATION         26   14A'          ATOM PAIR      ENERGY CONTRIBUTION    RADIAL
 FREQUENCY          1594.01         N  1 -- C  2         +22.6% ( 67.6%)     99.4%
 TRANSITION DIPOLE   3.1745         C  2 -- C  3         +19.4% ( 62.6%)     52.4%
 TRAVEL (Ang.)       0.1272         C  2 -- C  4         +19.4% ( 62.6%)     52.4%
 REDUCED MASS        2.6148         C  5 -- C  7          +4.8% ( 31.1%)     66.3%
 EFFECTIVE MASS     10.5502
 FORCE CONSTANT      3.9144

 VIBRATION         27   15A'          ATOM PAIR      ENERGY CONTRIBUTION    RADIAL
 FREQUENCY          1684.02         N  1 -- H 14         +41.9% ( 60.0%)      1.2%
 TRANSITION DIPOLE   0.8136         N  1 -- H 13         +41.9% ( 60.0%)      1.2%
 TRAVEL (Ang.)       0.2963         N  1 -- C  2          +3.1% ( 16.3%)    100.0%
 REDUCED MASS        0.4560         C  4 -- C  6          +2.3% ( 14.2%)     89.0%
 EFFECTIVE MASS      2.1630
 FORCE CONSTANT      0.7619

 VIBRATION         28   13A"          ATOM PAIR      ENERGY CONTRIBUTION    RADIAL
 FREQUENCY          1697.50         C  2 -- C  4         +16.3% ( 55.8%)     85.3%
 TRANSITION DIPOLE   1.4683         C  2 -- C  3         +16.3% ( 55.8%)     85.3%
 TRAVEL (Ang.)       0.1257         C  5 -- C  7         +13.4% ( 50.6%)     89.0%
 REDUCED MASS        2.5153         C  6 -- C  7         +13.4% ( 50.6%)     89.0%
 EFFECTIVE MASS     11.6456         N  1 -- C  2         +10.4% ( 44.6%)      0.0%
 FORCE CONSTANT      4.2703

 VIBRATION         29   16A'          ATOM PAIR      ENERGY CONTRIBUTION    RADIAL
 FREQUENCY          1713.30         C  3 -- C  5         +17.6% ( 58.1%)     99.8%
 TRANSITION DIPOLE   2.4839         C  4 -- C  6         +17.6% ( 58.1%)     99.8%
 TRAVEL (Ang.)       0.1321         C  5 -- C  7          +9.5% ( 42.7%)     46.1%
 REDUCED MASS        2.2538         C  6 -- C  7          +9.5% ( 42.7%)     46.1%
 EFFECTIVE MASS     11.4244
 FORCE CONSTANT      3.8979

 VIBRATION         30   17A'          ATOM PAIR      ENERGY CONTRIBUTION    RADIAL
 FREQUENCY          2752.54         C  5 -- H 10         +37.5% ( 62.0%)    100.0%
 TRANSITION DIPOLE   0.2947         C  6 -- H 11         +37.5% ( 62.0%)    100.0%
 TRAVEL (Ang.)       0.2886         C  7 -- H 12         +11.9% ( 35.0%)    100.0%
 REDUCED MASS        0.2942         C  3 -- H  8          +5.5% ( 23.7%)     99.7%
 EFFECTIVE MASS      1.3747
 FORCE CONSTANT      1.3131

 VIBRATION         31   14A"          ATOM PAIR      ENERGY CONTRIBUTION    RADIAL
 FREQUENCY          2756.28         C  6 -- H 11         +46.3% ( 68.7%)    100.0%
 TRANSITION DIPOLE   0.6395         C  5 -- H 10         +46.3% ( 68.7%)    100.0%
 TRAVEL (Ang.)       0.2424         C  4 -- H  9          +2.7% ( 16.7%)     99.5%
 REDUCED MASS        0.4165         C  3 -- H  8          +2.7% ( 16.7%)     99.5%
 EFFECTIVE MASS      1.3600
 FORCE CONSTANT      1.8643

 VIBRATION         32   18A'          ATOM PAIR      ENERGY CONTRIBUTION    RADIAL
 FREQUENCY          2770.38         C  7 -- H 12         +46.8% ( 69.1%)    100.0%
 TRANSITION DIPOLE   0.8529         C  3 -- H  8         +25.5% ( 50.9%)    100.0%
 TRAVEL (Ang.)       0.2681         C  4 -- H  9         +25.5% ( 50.9%)    100.0%
 REDUCED MASS        0.3386         C  6 -- C  7          +0.5% (  6.9%)     17.5%
 EFFECTIVE MASS      1.3625
 FORCE CONSTANT      1.5312

 VIBRATION         33   15A"          ATOM PAIR      ENERGY CONTRIBUTION    RADIAL
 FREQUENCY          2771.50         C  4 -- H  9         +45.9% ( 68.4%)    100.0%
 TRANSITION DIPOLE   1.1169         C  3 -- H  8         +45.9% ( 68.4%)    100.0%
 TRAVEL (Ang.)       0.2435         C  5 -- H 10          +2.7% ( 16.6%)     99.3%
 REDUCED MASS        0.4104         C  6 -- H 11          +2.7% ( 16.6%)     99.3%
 EFFECTIVE MASS      1.3743
 FORCE CONSTANT      1.8571

 VIBRATION         34   19A'          ATOM PAIR      ENERGY CONTRIBUTION    RADIAL
 FREQUENCY          2777.80         C  7 -- H 12         +39.0% ( 63.0%)    100.0%
 TRANSITION DIPOLE   0.6497         C  4 -- H  9         +17.7% ( 42.4%)    100.0%
 TRAVEL (Ang.)       0.3217         C  3 -- H  8         +17.7% ( 42.4%)    100.0%
 REDUCED MASS        0.2346         C  6 -- H 11         +11.2% ( 33.8%)    100.0%
 EFFECTIVE MASS      1.4553         C  5 -- H 10         +11.2% ( 33.8%)    100.0%
 FORCE CONSTANT      1.0663

 VIBRATION         35   16A"          ATOM PAIR      ENERGY CONTRIBUTION    RADIAL
 FREQUENCY          2815.27         N  1 -- H 14         +49.2% ( 71.6%)     98.5%
 TRANSITION DIPOLE   1.0538         N  1 -- H 13         +49.2% ( 71.6%)     98.5%
 TRAVEL (Ang.)       0.2174         N  1 -- C  2          +0.9% (  9.6%)      0.0%
 REDUCED MASS        0.5070         C  3 -- H  8          +0.3% (  5.8%)     99.8%
 EFFECTIVE MASS      1.5143
 FORCE CONSTANT      2.3676

 VIBRATION         36   20A'          ATOM PAIR      ENERGY CONTRIBUTION    RADIAL
 FREQUENCY          2834.16         N  1 -- H 13         +49.3% ( 69.3%)     96.5%
 TRANSITION DIPOLE   1.0892         N  1 -- H 14         +49.3% ( 69.3%)     96.5%
 TRAVEL (Ang.)       0.2234         C  4 -- H  9          +0.4% (  6.1%)     98.8%
 REDUCED MASS        0.4766         C  3 -- H  8          +0.4% (  6.1%)     98.8%
 EFFECTIVE MASS      1.2072
 FORCE CONSTANT      2.2554

      SYMMETRY NUMBER FOR POINT-GROUP Cs  =  1


          SYSTEM IS A GROUND STATE



 anilin, PM7


          MOLECULE IS NOT LINEAR

          THERE ARE 36 GENUINE VIBRATIONS IN THIS SYSTEM
          THIS THERMODYNAMICS CALCULATION IS LIMITED TO
          MOLECULES WHICH HAVE NO INTERNAL ROTATIONS




                    CALCULATED THERMODYNAMIC PROPERTIES
                                          *
   TEMP. (K)   PARTITION FUNCTION   H.O.F.    ENTHALPY  HEAT CAPACITY ENTROPY
                                   KCAL/MOL   CAL/MOLE    CAL/K/MOL  CAL/K/MOL


 298.00  VIB.     0.5054D+01                  1949.8346    17.1115     9.7628
         ROT.     0.1704D+06                   888.2803     2.9808    26.9189
         INT.     0.8614D+06                  2838.1149    20.0924    36.6816
         TRA.     0.8689D+27                  1480.4672     4.9680    39.5035
         TOT.                       21.218    4318.5821    25.0604    76.1852

 200.00  VIB.     0.1951D+01                   645.6720     9.5341     4.5562
         ROT.     0.9371D+05                   596.1613     2.9808    25.7302
         INT.     0.1828D+06                  1241.8333    12.5149    30.2864
         TRA.     0.4777D+27                   993.6021     4.9680    37.5224
         TOT.                       19.135    2235.4354    17.4829    67.8088

 210.00  VIB.     0.2120D+01                   744.8173    10.2956     5.0398
         ROT.     0.1008D+06                   625.9693     2.9808    25.8756
         INT.     0.2137D+06                  1370.7867    13.2764    30.9154
         TRA.     0.5140D+27                  1043.2822     4.9680    37.7648
         TOT.                       19.313    2414.0689    18.2444    68.6802

 220.00  VIB.     0.2312D+01                   851.5973    11.0610     5.5364
         ROT.     0.1081D+06                   655.7774     2.9808    26.0143
         INT.     0.2499D+06                  1507.3747    14.0418    31.5507
         TRA.     0.5511D+27                  1092.9623     4.9680    37.9959
         TOT.                       19.500    2600.3370    19.0098    69.5466

 230.00  VIB.     0.2530D+01                   966.0497    11.8301     6.0450
         ROT.     0.1156D+06                   685.5855     2.9808    26.1468
         INT.     0.2924D+06                  1651.6352    14.8109    32.1918
         TRA.     0.5891D+27                  1142.6424     4.9680    38.2168
         TOT.                       19.693    2794.2776    19.7789    70.4086

 240.00  VIB.     0.2778D+01                  1088.2093    12.6024     6.5648
         ROT.     0.1232D+06                   715.3935     2.9808    26.2737
         INT.     0.3422D+06                  1803.6028    15.5832    32.8385
         TRA.     0.6280D+27                  1192.3226     4.9680    38.4282
         TOT.                       19.895    2995.9254    20.5512    71.2667

 250.00  VIB.     0.3060D+01                  1218.1059    13.3774     7.0950
         ROT.     0.1310D+06                   745.2016     2.9808    26.3954
         INT.     0.4007D+06                  1963.3075    16.3582    33.4903
         TRA.     0.6676D+27                  1242.0027     4.9680    38.6310
         TOT.                       20.105    3205.3102    21.3262    72.1213

 260.00  VIB.     0.3380D+01                  1355.7634    14.1544     7.6348
         ROT.     0.1389D+06                   775.0097     2.9808    26.5123
         INT.     0.4695D+06                  2130.7731    17.1352    34.1470
         TRA.     0.7081D+27                  1291.6828     4.9680    38.8258
         TOT.                       20.322    3422.4559    22.1032    72.9729

 270.00  VIB.     0.3744D+01                  1501.1987    14.9328     8.1835
         ROT.     0.1470D+06                   804.8177     2.9808    26.6248
         INT.     0.5504D+06                  2306.0164    17.9136    34.8083
         TRA.     0.7493D+27                  1341.3629     4.9680    39.0133
         TOT.                       20.547    3647.3793    22.8816    73.8216

 280.00  VIB.     0.4158D+01                  1654.4203    15.7116     8.7407
         ROT.     0.1552D+06                   834.6258     2.9808    26.7332
         INT.     0.6455D+06                  2489.0461    18.6924    35.4738
         TRA.     0.7913D+27                  1391.0430     4.9680    39.1940
         TOT.                       20.779    3880.0891    23.6604    74.6679

 290.00  VIB.     0.4630D+01                  1815.4282    16.4899     9.3056
         ROT.     0.1636D+06                   864.4339     2.9808    26.8378
         INT.     0.7575D+06                  2679.8621    19.4707    36.1434
         TRA.     0.8341D+27                  1440.7231     4.9680    39.3684
         TOT.                       21.020    4120.5852    24.4387    75.5117

 300.00  VIB.     0.5167D+01                  1984.2130    17.2668     9.8777
         ROT.     0.1722D+06                   894.2419     2.9808    26.9388
         INT.     0.8896D+06                  2878.4549    20.2476    36.8166
         TRA.     0.8776D+27                  1490.4032     4.9680    39.5368
         TOT.                       21.268    4368.8581    25.2156    76.3533

 310.00  VIB.     0.5780D+01                  2160.7557    18.0413    10.4565
         ROT.     0.1808D+06                   924.0500     2.9808    27.0366
         INT.     0.1045D+07                  3084.8057    21.0221    37.4931
         TRA.     0.9219D+27                  1540.0833     4.9680    39.6997
         TOT.                       21.524    4624.8890    25.9901    77.1928

 320.00  VIB.     0.6479D+01                  2345.0282    18.8126    11.0415
         ROT.     0.1897D+06                   953.8580     2.9808    27.1312
         INT.     0.1229D+07                  3298.8862    21.7934    38.1727
         TRA.     0.9668D+27                  1589.7634     4.9680    39.8574
         TOT.                       21.788    4888.6496    26.7614    78.0301

 330.00  VIB.     0.7278D+01                  2536.9930    19.5796    11.6322
         ROT.     0.1986D+06                   983.6661     2.9808    27.2229
         INT.     0.1445D+07                  3520.6591    22.5604    38.8551
         TRA.     0.1012D+28                  1639.4435     4.9680    40.0103
         TOT.                       22.059    5160.1027    27.5285    78.8654

 340.00  VIB.     0.8191D+01                  2736.6042    20.3417    12.2280
         ROT.     0.2077D+06                  1013.4742     2.9808    27.3119
         INT.     0.1701D+07                  3750.0783    23.3225    39.5399
         TRA.     0.1059D+28                  1689.1236     4.9680    40.1586
         TOT.                       22.338    5439.2020    28.2905    79.6985

 350.00  VIB.     0.9236D+01                  2943.8072    21.0979    12.8286
         ROT.     0.2169D+06                  1043.2822     2.9808    27.3983
         INT.     0.2004D+07                  3987.0894    24.0787    40.2269
         TRA.     0.1106D+28                  1738.8037     4.9680    40.3026
         TOT.                       22.625    5725.8932    29.0467    80.5295

 360.00  VIB.     0.1043D+02                  3158.5401    21.8475    13.4335
         ROT.     0.2263D+06                  1073.0903     2.9808    27.4823
         INT.     0.2361D+07                  4231.6304    24.8284    40.9157
         TRA.     0.1154D+28                  1788.4838     4.9680    40.4426
         TOT.                       22.919    6020.1143    29.7964    81.3583

 370.00  VIB.     0.1180D+02                  3380.7341    22.5900    14.0422
         ROT.     0.2358D+06                  1102.8984     2.9808    27.5640
         INT.     0.2783D+07                  4483.6324    25.5708    41.6062
         TRA.     0.1202D+28                  1838.1639     4.9680    40.5787
         TOT.                       23.221    6321.7964    30.5388    82.1848

 380.00  VIB.     0.1337D+02                  3610.3138    23.3246    14.6544
         ROT.     0.2454D+06                  1132.7064     2.9808    27.6434
         INT.     0.3282D+07                  4743.0202    26.3054    42.2979
         TRA.     0.1251D+28                  1887.8440     4.9680    40.7112
         TOT.                       23.530    6630.8643    31.2734    83.0090

 390.00  VIB.     0.1518D+02                  3847.1985    24.0509    15.2697
         ROT.     0.2552D+06                  1162.5145     2.9808    27.7209
         INT.     0.3873D+07                  5009.7130    27.0317    42.9906
         TRA.     0.1301D+28                  1937.5242     4.9680    40.8402
         TOT.                       23.846    6947.2372    31.9997    83.8308

 400.00  VIB.     0.1725D+02                  4091.3026    24.7684    15.8877
         ROT.     0.2650D+06                  1192.3226     2.9808    27.7963
         INT.     0.4573D+07                  5283.6252    27.7492    43.6840
         TRA.     0.1351D+28                  1987.2043     4.9680    40.9660
         TOT.                       24.170    7270.8294    32.7172    84.6500

   *: NOTE: HEATS OF FORMATION ARE RELATIVE TO THE
            ELEMENTS IN THEIR STANDARD STATE AT 298K
              (=  Standard Enthalpy of Formation).

            Hvib:  Zero-point energy is not included.
                   frequencies of less than zero cm-1 are not included.
            Hrot = (3/2)RT
            Htra = (3/2)RT + pV = (5/2)RT

            Heat capacity is Cp, not Cv

          For more information, see: HTTP://OpenMOPAC.net/Manual/thermochemistry.html


           FORCE CONSTANT IN CARTESIAN COORDINATES (Millidynes/A)

    ATOM   CHEMICAL       X               Y               Z
   NUMBER   SYMBOL  FORCE CONSTANT  FORCE CONSTANT  FORCE CONSTANT

      1       N       10.030815        7.830078        0.823246
      2       C       12.306535       11.657355        2.443917
      3       C       11.365529        9.722691        2.327254
      4       C       11.365506        9.721276        2.328692
      5       C       11.217506       10.159658        2.465999
      6       C       11.217542       10.162823        2.462798
      7       C        9.847387       11.223146        2.355973
      8       H        1.765824        3.471864        0.373524
      9       H        1.765897        3.478077        0.367238
     10       H        1.769509        3.415645        0.395510
     11       H        1.769436        3.407524        0.403703
     12       H        4.289881        0.925261        0.388534
     13       H        2.033210        3.425759        0.279902
     14       H        2.033138        3.350848        0.354885

 **********************
 *                    *
 * JOB ENDED NORMALLY *
 *                    *
 **********************



 TOTAL JOB TIME:             6.39 SECONDS

 == MOPAC DONE ==
