 *******************************************************************************
 **                                                                           **
 **                              MOPAC v22.1.0                                **
 **                                                                           **
 *******************************************************************************
 **          Digital Object Identifier (DOI): 10.5281/zenodo.6511958          **
 **    Visit the DOI location for information on how to cite this program.    **
 *******************************************************************************

                              PM7 CALCULATION RESULTS

 *******************************************************************************
 *  CALCULATION DONE:                                Fri Jan 26 11:13:28 2024  *
 *  PM7        - The PM7 Hamiltonian to be used
 *  SINGLET    - SPIN STATE DEFINED AS A SINGLET
 *
 *
 *
 *                 CHARGE ON SYSTEM = +1
 *
 *
 *
 *  PRECISE    - TIGHTER CRITERIA TO BE USED
 *  T=         - A TIME OF 172800.0 SECONDS REQUESTED
 *  DUMP=N     - RESTART FILE WRITTEN EVERY 7200.0 SECONDS REQUESTED
 *  LARGE      - EXPANDED OUTPUT TO BE PRINTED
 *******************************************************************************
 PRECISE LARGE CHARGE=1 SINGLET  PM7
 anilinium(+), PM7

   ATOM   CHEMICAL          X               Y               Z
  NUMBER   SYMBOL      (ANGSTROMS)     (ANGSTROMS)     (ANGSTROMS)
 
     1       N         -2.49076000  *   0.00711000  *   0.02582000  *
     2       C         -1.07093000  *   0.00414000  *   0.00845000  *
     3       C         -0.35892000  *   1.21592000  *  -0.01146000  *
     4       C         -0.36220000  *  -1.20960000  *   0.00503000  *
     5       C          1.03945000  *   1.21169000  *  -0.03114000  *
     6       C          1.03614000  *  -1.20921000  *  -0.01551000  *
     7       C          1.73639000  *   0.00022000  *  -0.03304000  *
     8       H         -0.88778000  *   2.16086000  *  -0.01133000  *
     9       H         -0.89261000  *  -2.15352000  *   0.01722000  *
    10       H          1.58286000  *   2.14766000  *  -0.04540000  *
    11       H          1.57696000  *  -2.14677000  *  -0.01824000  *
    12       H          2.81861000  *  -0.00140000  *  -0.04883000  *
    13       H         -2.92229000  *  -0.87746000  *   0.33219000  *
    14       H         -2.90217000  *   0.83847000  *   0.47550000  *
    15       H         -2.84011000  *   0.13746000  *  -0.93459000  *
 


          CARTESIAN COORDINATES 

    NO.       ATOM           X           Y           Z

     1         N         -2.4908      0.0071      0.0258
     2         C         -1.0709      0.0041      0.0084
     3         C         -0.3589      1.2159     -0.0115
     4         C         -0.3622     -1.2096      0.0050
     5         C          1.0394      1.2117     -0.0311
     6         C          1.0361     -1.2092     -0.0155
     7         C          1.7364      0.0002     -0.0330
     8         H         -0.8878      2.1609     -0.0113
     9         H         -0.8926     -2.1535      0.0172
    10         H          1.5829      2.1477     -0.0454
    11         H          1.5770     -2.1468     -0.0182
    12         H          2.8186     -0.0014     -0.0488
    13         H         -2.9223     -0.8775      0.3322
    14         H         -2.9022      0.8385      0.4755
    15         H         -2.8401      0.1375     -0.9346

 General Reference for PM7:
 "Optimization of Parameters for Semiempirical Methods VI: More Modifications to the 
 NDDO Approximations and Re-optimization of Parameters", J. J. P. Stewart, J. Mol. Mod., 1:32, 19 (2013)
 https://link.springer.com/article/10.1007/s00894-012-1667-x

           Empirical Formula: C6 H8 N  =    15 atoms



      MOLECULAR POINT GROUP   :   C1  


 SINGLET STATE CALCULATION


      RHF CALCULATION, NO. OF DOUBLY OCCUPIED LEVELS = 18


          Geometry optimization using EF

          DIAGONAL MATRIX USED AS START HESSIAN

 CYCLE:     1 TIME:   0.039 TIME LEFT:  2.00D  GRAD.:   107.413 HEAT:  182.9414
 CYCLE:     2 TIME:   0.059 TIME LEFT:  2.00D  GRAD.:    66.136 HEAT:  179.8833
 CYCLE:     3 TIME:   0.059 TIME LEFT:  2.00D  GRAD.:    30.711 HEAT:  178.7984
 CYCLE:     4 TIME:   0.062 TIME LEFT:  2.00D  GRAD.:    18.918 HEAT:  178.5063
 CYCLE:     5 TIME:   0.055 TIME LEFT:  2.00D  GRAD.:    20.514 HEAT:  178.4657
 CYCLE:     6 TIME:   0.031 TIME LEFT:  2.00D  GRAD.:    13.325 HEAT:  178.4004
 CYCLE:     7 TIME:   0.031 TIME LEFT:  2.00D  GRAD.:    13.310 HEAT:  178.3998
 CYCLE:     8 TIME:   0.027 TIME LEFT:  2.00D  GRAD.:    11.298 HEAT:  178.3753
 CYCLE:     9 TIME:   0.031 TIME LEFT:  2.00D  GRAD.:    12.185 HEAT:  178.3725
 CYCLE:    10 TIME:   0.027 TIME LEFT:  2.00D  GRAD.:     6.592 HEAT:  178.3440
 CYCLE:    11 TIME:   0.098 TIME LEFT:  2.00D  GRAD.:     4.110 HEAT:  178.3353
 CYCLE:    12 TIME:   0.043 TIME LEFT:  2.00D  GRAD.:     2.199 HEAT:  178.3294
 CYCLE:    13 TIME:   0.027 TIME LEFT:  2.00D  GRAD.:     2.907 HEAT:  178.3238
 CYCLE:    14 TIME:   0.031 TIME LEFT:  2.00D  GRAD.:     3.522 HEAT:  178.3169
 CYCLE:    15 TIME:   0.035 TIME LEFT:  2.00D  GRAD.:     2.353 HEAT:  178.3119
 CYCLE:    16 TIME:   0.027 TIME LEFT:  2.00D  GRAD.:     2.662 HEAT:  178.3114
 CYCLE:    17 TIME:   0.027 TIME LEFT:  2.00D  GRAD.:     1.546 HEAT:  178.3086
 CYCLE:    18 TIME:   0.027 TIME LEFT:  2.00D  GRAD.:     1.249 HEAT:  178.3068
 CYCLE:    19 TIME:   0.031 TIME LEFT:  2.00D  GRAD.:     0.953 HEAT:  178.3042
 CYCLE:    20 TIME:   0.027 TIME LEFT:  2.00D  GRAD.:     0.827 HEAT:  178.3012
 CYCLE:    21 TIME:   0.031 TIME LEFT:  2.00D  GRAD.:     0.667 HEAT:  178.3007
 CYCLE:    22 TIME:   0.027 TIME LEFT:  2.00D  GRAD.:     0.531 HEAT:  178.3003
 CYCLE:    23 TIME:   0.031 TIME LEFT:  2.00D  GRAD.:     0.288 HEAT:  178.2999
 CYCLE:    24 TIME:   0.031 TIME LEFT:  2.00D  GRAD.:     0.191 HEAT:  178.2998
 CYCLE:    25 TIME:   0.027 TIME LEFT:  2.00D  GRAD.:     0.146 HEAT:  178.2998
 CYCLE:    26 TIME:   0.027 TIME LEFT:  2.00D  GRAD.:     0.107 HEAT:  178.2997
 CYCLE:    27 TIME:   0.031 TIME LEFT:  2.00D  GRAD.:     0.099 HEAT:  178.2997
 CYCLE:    28 TIME:   0.035 TIME LEFT:  2.00D  GRAD.:     0.112 HEAT:  178.2997
 CYCLE:    29 TIME:   0.031 TIME LEFT:  2.00D  GRAD.:     0.103 HEAT:  178.2997
 CYCLE:    30 TIME:   0.027 TIME LEFT:  2.00D  GRAD.:     0.079 HEAT:  178.2997
 CYCLE:    31 TIME:   0.027 TIME LEFT:  2.00D  GRAD.:     0.048 HEAT:  178.2997

     GRADIENT =  0.04826 IS LESS THAN CUTOFF =  0.05000



 -------------------------------------------------------------------------------
 PRECISE LARGE CHARGE=1 SINGLET  PM7
 anilinium(+), PM7



     GEOMETRY OPTIMISED USING EIGENVECTOR FOLLOWING (EF).     
     SCF FIELD WAS ACHIEVED                                   


                              PM7 CALCULATION
                                                       MOPAC v22.1.0 Windows
                                                       Fri Jan 26 11:13:29 2024




          FINAL HEAT OF FORMATION =        178.29966 KCAL/MOL =     746.00577 KJ/MOL


          COSMO AREA              =        136.09 SQUARE ANGSTROMS
          COSMO VOLUME            =        126.06 CUBIC ANGSTROMS

          GRADIENT NORM           =          0.04826          =       0.01246 PER ATOM
          IONIZATION POTENTIAL    =         14.319933 EV
          HOMO LUMO ENERGIES (EV) =        -14.320 -4.639
          NO. OF FILLED LEVELS    =         18
          MOLECULAR WEIGHT        =         94.1359         POINT GROUP:  C1  

          MOLECULAR DIMENSIONS (Angstroms)

            Atom       Atom       Distance
            H    13    H    12     5.79881
            H    11    H     8     4.66174
            H    15    H    14     1.55905


          SCF CALCULATIONS        =         37
 
          WALL-CLOCK TIME         =      1.188 SECONDS
          COMPUTATION TIME        =      3.438 SECONDS




   ATOM   CHEMICAL          X               Y               Z
  NUMBER   SYMBOL      (ANGSTROMS)     (ANGSTROMS)     (ANGSTROMS)
 
     1       N         -2.51815028  *   0.01390185  *   0.00023208  *
     2       C         -1.02949021  *   0.00693282  *  -0.00221460  *
     3       C         -0.35684578  *   1.22728394  *  -0.01673449  *
     4       C         -0.36386268  *  -1.21673577  *  -0.00030738  *
     5       C          1.03647437  *   1.21267334  *  -0.02903149  *
     6       C          1.02996281  *  -1.20997680  *  -0.01273633  *
     7       C          1.72687426  *  -0.00077838  *  -0.02704492  *
     8       H         -0.88655645  *   2.18149643  *  -0.01892152  *
     9       H         -0.89807312  *  -2.16848278  *   0.01039453  *
    10       H          1.59108542  *   2.15778527  *  -0.03990123  *
    11       H          1.57906522  *  -2.15835015  *  -0.01092751  *
    12       H          2.82372231  *  -0.00356629  *  -0.03638734  *
    13       H         -2.89402409  *  -0.86779927  *   0.39567305  *
    14       H         -2.88263690  *   0.80230141  *   0.56702172  *
    15       H         -2.87703419  *   0.11505829  *  -0.96914471  *

                             CARTESIAN COORDINATES

   1    N       -2.518150279     0.013901852     0.000232082
   2    C       -1.029490208     0.006932822    -0.002214604
   3    C       -0.356845775     1.227283939    -0.016734487
   4    C       -0.363862677    -1.216735775    -0.000307378
   5    C        1.036474374     1.212673340    -0.029031494
   6    C        1.029962810    -1.209976801    -0.012736325
   7    C        1.726874262    -0.000778378    -0.027044921
   8    H       -0.886556454     2.181496429    -0.018921516
   9    H       -0.898073119    -2.168482778     0.010394527
  10    H        1.591085422     2.157785271    -0.039901232
  11    H        1.579065219    -2.158350150    -0.010927512
  12    H        2.823722309    -0.003566290    -0.036387335
  13    H       -2.894024092    -0.867799267     0.395673051
  14    H       -2.882636896     0.802301414     0.567021717
  15    H       -2.877034192     0.115058285    -0.969144707


           Empirical Formula: C6 H8 N  =    15 atoms



      MOLECULAR POINT GROUP   :   C1  


                  EIGENVALUES  
 -44.09917 -34.94694 -30.54988 -30.00454 -26.11707 -25.61939 -23.84915 -23.08491
 -22.93680 -20.72067 -19.65876 -19.07042 -18.79944 -17.93674 -16.71766 -16.41527
 -14.41796 -14.31993  -4.63909  -4.18830  -3.80340  -1.93870  -1.62052  -1.01629
  -0.64116  -0.22019  -0.20576   0.51242   0.52330   0.76305   1.13911   1.45674
   1.48575   1.97032   2.11199   2.20674


              NET ATOMIC CHARGES AND DIPOLE CONTRIBUTIONS

  ATOM NO.   TYPE          CHARGE      No. of ELECS.   s-Pop       p-Pop       
    1          N          -0.186025        5.1860     1.47108     3.71494
    2          C          -0.045949        4.0459     1.06473     2.98122
    3          C          -0.150428        4.1504     1.08481     3.06562
    4          C          -0.148664        4.1487     1.08497     3.06369
    5          C          -0.101495        4.1015     1.09156     3.00994
    6          C          -0.102009        4.1020     1.09151     3.01050
    7          C          -0.084086        4.0841     1.09861     2.98547
    8          H           0.175789        0.8242     0.82421
    9          H           0.175486        0.8245     0.82451
   10          H           0.188215        0.8118     0.81179
   11          H           0.188265        0.8117     0.81174
   12          H           0.188973        0.8110     0.81103
   13          H           0.299826        0.7002     0.70017
   14          H           0.300419        0.6996     0.69958
   15          H           0.301685        0.6983     0.69832
 DIPOLE           X         Y         Z       TOTAL
 POINT-CHG.    -6.509     0.030     0.000     6.509
 HYBRID        -1.053     0.003    -0.000     1.053
 SUM           -7.562     0.033     0.000     7.562


          ATOMIC ORBITAL ELECTRON POPULATIONS

     Atom    s        px        py        pz   
    1  N   1.47108   1.20857   1.25536   1.25101
    2  C   1.06473   0.75376   1.03470   1.19277
    3  C   1.08481   1.03486   1.02761   1.00315
    4  C   1.08497   1.03557   1.02629   1.00183
    5  C   1.09156   0.98502   1.07752   0.94740
    6  C   1.09151   0.98426   1.07822   0.94803
    7  C   1.09861   1.10162   0.97227   0.91158
    8  H   0.82421
    9  H   0.82451
   10  H   0.81179
   11  H   0.81174
   12  H   0.81103
   13  H   0.70017
   14  H   0.69958
   15  H   0.69832
 *******************************************************************************
 **                                                                           **
 **                              MOPAC v22.1.0                                **
 **                                                                           **
 *******************************************************************************
 **          Digital Object Identifier (DOI): 10.5281/zenodo.6511958          **
 **    Visit the DOI location for information on how to cite this program.    **
 *******************************************************************************

                              PM7 CALCULATION RESULTS

 *******************************************************************************
 *  CALCULATION DONE:                                Fri Jan 26 11:13:29 2024  *
 *  PM7        - The PM7 Hamiltonian to be used
 *  SINGLET    - SPIN STATE DEFINED AS A SINGLET
 *
 *
 *
 *                 CHARGE ON SYSTEM = +1
 *
 *
 *
 *  OLDGEO     - PREVIOUS GEOMETRY TO BE USED
 *  PRECISE    - TIGHTER CRITERIA TO BE USED
 *  T=         - A TIME OF 172800.0 SECONDS REQUESTED
 *  DUMP=N     - RESTART FILE WRITTEN EVERY 7200.0 SECONDS REQUESTED
 *  THERMO     - THERMODYNAMIC QUANTITIES TO BE CALCULATED
 *******************************************************************************
OLDGEO CHARGE=1 SINGLET PRECISE PM7 THERMO
 anilinium(+), PM7

   ATOM   CHEMICAL          X               Y               Z
  NUMBER   SYMBOL      (ANGSTROMS)     (ANGSTROMS)     (ANGSTROMS)
 
     1       N         -2.51815028  *   0.01390185  *   0.00023208  *
     2       C         -1.02949021  *   0.00693282  *  -0.00221460  *
     3       C         -0.35684578  *   1.22728394  *  -0.01673449  *
     4       C         -0.36386268  *  -1.21673577  *  -0.00030738  *
     5       C          1.03647437  *   1.21267334  *  -0.02903149  *
     6       C          1.02996281  *  -1.20997680  *  -0.01273633  *
     7       C          1.72687426  *  -0.00077838  *  -0.02704492  *
     8       H         -0.88655645  *   2.18149643  *  -0.01892152  *
     9       H         -0.89807312  *  -2.16848278  *   0.01039453  *
    10       H          1.59108542  *   2.15778527  *  -0.03990123  *
    11       H          1.57906522  *  -2.15835015  *  -0.01092751  *
    12       H          2.82372231  *  -0.00356629  *  -0.03638734  *
    13       H         -2.89402409  *  -0.86779927  *   0.39567305  *
    14       H         -2.88263690  *   0.80230141  *   0.56702172  *
    15       H         -2.87703419  *   0.11505829  *  -0.96914471  *
 


          CARTESIAN COORDINATES 

    NO.       ATOM           X           Y           Z

     1         N         -2.5182      0.0139      0.0002
     2         C         -1.0295      0.0069     -0.0022
     3         C         -0.3568      1.2273     -0.0167
     4         C         -0.3639     -1.2167     -0.0003
     5         C          1.0365      1.2127     -0.0290
     6         C          1.0300     -1.2100     -0.0127
     7         C          1.7269     -0.0008     -0.0270
     8         H         -0.8866      2.1815     -0.0189
     9         H         -0.8981     -2.1685      0.0104
    10         H          1.5911      2.1578     -0.0399
    11         H          1.5791     -2.1584     -0.0109
    12         H          2.8237     -0.0036     -0.0364
    13         H         -2.8940     -0.8678      0.3957
    14         H         -2.8826      0.8023      0.5670
    15         H         -2.8770      0.1151     -0.9691

 General Reference for PM7:
 "Optimization of Parameters for Semiempirical Methods VI: More Modifications to the 
 NDDO Approximations and Re-optimization of Parameters", J. J. P. Stewart, J. Mol. Mod., 1:32, 19 (2013)
 https://link.springer.com/article/10.1007/s00894-012-1667-x

           Empirical Formula: C6 H8 N  =    15 atoms



      MOLECULAR POINT GROUP   :   C1  


 SINGLET STATE CALCULATION


      RHF CALCULATION, NO. OF DOUBLY OCCUPIED LEVELS = 18



          HEAT OF FORMATION =     178.299657 KCALS/MOLE


          CARTESIAN COORDINATE DERIVATIVES

   NUMBER  ATOM         X            Y            Z

     1       N      0.004684     0.005167    -0.000304
     2       C     -0.007764     0.009043     0.000217
     3       C      0.009712     0.001263     0.009283
     4       C     -0.009374     0.002810    -0.005329
     5       C      0.007016    -0.009685    -0.006072
     6       C     -0.003144    -0.009858     0.004601
     7       C     -0.008151    -0.007576    -0.005559
     8       H      0.014793     0.000107    -0.002860
     9       H      0.012595    -0.005352    -0.000184
    10       H      0.000286    -0.000872     0.005379
    11       H      0.000619     0.001701     0.001295
    12       H     -0.012338     0.021806    -0.002066
    13       H     -0.002827     0.000243     0.000917
    14       H     -0.009410    -0.000736     0.000228
    15       H      0.003306    -0.008065     0.000451
 


          GRADIENT NORM =   0.04707


          TIME FOR SCF CALCULATION =    0.02

          TIME FOR DERIVATIVES     =    0.02

          MOLECULAR WEIGHT =   94.14



          ROTATIONAL CONSTANTS IN CM(-1)

          A =    0.18146352   B =    0.08224141   C =    0.05714114



           PRINCIPAL MOMENTS OF INERTIA IN UNITS OF 10**(-40)*GRAM-CM**2

          A =      154.2610   B =      340.3730   C =      489.8878


          ORIENTATION OF MOLECULE IN FORCE CALCULATION

    NO.       ATOM         X         Y         Z

     1          N      -2.3566   -0.0024    0.0086
     2          C      -0.8679   -0.0024    0.0086
     3          C      -0.2010    1.2212    0.0086
     4          C      -0.1966   -1.2229   -0.0018
     5          C       1.1924    1.2132   -0.0015
     6          C       1.1972   -1.2095   -0.0117
     7          C       1.8885    0.0030   -0.0116
     8          H      -0.7351    2.1729    0.0160
     9          H      -0.7263   -2.1772   -0.0024
    10          H       1.7426    2.1609   -0.0010
    11          H       1.7508   -2.1553   -0.0194
    12          H       2.9853    0.0054   -0.0191
    13          H      -2.7290   -0.8901    0.3937
    14          H      -2.7257    0.7780    0.5834
    15          H      -2.7144    0.1077   -0.9602


    FIRST DERIVATIVES WILL BE USED IN THE CALCULATION OF SECOND DERIVATIVES

          ESTIMATED TIME TO COMPLETE CALCULATION =        7.03 SECONDS

    FOR POINT-GROUP C1   THERE ARE   1 UNIQUE SYMMETRY FUNCTIONS.

 STEP:   1 TIME =     0.14 SECS, INTEGRAL =      0.14 TIME LEFT: 172799.82
 STEP:   2 TIME =     0.14 SECS, INTEGRAL =      0.27 TIME LEFT: 172799.69
 STEP:   3 TIME =     0.18 SECS, INTEGRAL =      0.45 TIME LEFT: 172799.51
 STEP:   4 TIME =     0.16 SECS, INTEGRAL =      0.61 TIME LEFT: 172799.35
 STEP:   5 TIME =     0.15 SECS, INTEGRAL =      0.76 TIME LEFT: 172799.20
 STEP:   6 TIME =     0.24 SECS, INTEGRAL =      1.00 TIME LEFT: 172798.96
 STEP:   7 TIME =     0.19 SECS, INTEGRAL =      1.19 TIME LEFT: 172798.77
 STEP:   8 TIME =     0.14 SECS, INTEGRAL =      1.33 TIME LEFT: 172798.63
 STEP:   9 TIME =     0.15 SECS, INTEGRAL =      1.48 TIME LEFT: 172798.48
 STEP:  10 TIME =     0.14 SECS, INTEGRAL =      1.62 TIME LEFT: 172798.34
 STEP:  11 TIME =     0.14 SECS, INTEGRAL =      1.77 TIME LEFT: 172798.20
 STEP:  12 TIME =     0.15 SECS, INTEGRAL =      1.91 TIME LEFT: 172798.05
 STEP:  13 TIME =     0.14 SECS, INTEGRAL =      2.05 TIME LEFT: 172797.91
 STEP:  14 TIME =     0.14 SECS, INTEGRAL =      2.20 TIME LEFT: 172797.77
 STEP:  15 TIME =     0.14 SECS, INTEGRAL =      2.34 TIME LEFT: 172797.62
 STEP:  16 TIME =     0.15 SECS, INTEGRAL =      2.49 TIME LEFT: 172797.47
 STEP:  17 TIME =     0.14 SECS, INTEGRAL =      2.63 TIME LEFT: 172797.33
 STEP:  18 TIME =     0.14 SECS, INTEGRAL =      2.77 TIME LEFT: 172797.19
 STEP:  19 TIME =     0.14 SECS, INTEGRAL =      2.91 TIME LEFT: 172797.05
 STEP:  20 TIME =     0.14 SECS, INTEGRAL =      3.05 TIME LEFT: 172796.91
 STEP:  21 TIME =     0.14 SECS, INTEGRAL =      3.20 TIME LEFT: 172796.76
 STEP:  22 TIME =     0.14 SECS, INTEGRAL =      3.34 TIME LEFT: 172796.62
 STEP:  23 TIME =     0.14 SECS, INTEGRAL =      3.48 TIME LEFT: 172796.48
 STEP:  24 TIME =     0.14 SECS, INTEGRAL =      3.61 TIME LEFT: 172796.35
 STEP:  25 TIME =     0.14 SECS, INTEGRAL =      3.76 TIME LEFT: 172796.20
 STEP:  26 TIME =     0.14 SECS, INTEGRAL =      3.90 TIME LEFT: 172796.06
 STEP:  27 TIME =     0.14 SECS, INTEGRAL =      4.04 TIME LEFT: 172795.92
 STEP:  28 TIME =     0.14 SECS, INTEGRAL =      4.18 TIME LEFT: 172795.78
 STEP:  29 TIME =     0.14 SECS, INTEGRAL =      4.32 TIME LEFT: 172795.64
 STEP:  30 TIME =     0.15 SECS, INTEGRAL =      4.47 TIME LEFT: 172795.49
 STEP:  31 TIME =     0.14 SECS, INTEGRAL =      4.61 TIME LEFT: 172795.35
 STEP:  32 TIME =     0.14 SECS, INTEGRAL =      4.75 TIME LEFT: 172795.21
 STEP:  33 TIME =     0.15 SECS, INTEGRAL =      4.91 TIME LEFT: 172795.05
 STEP:  34 TIME =     0.15 SECS, INTEGRAL =      5.05 TIME LEFT: 172794.91
 STEP:  35 TIME =     0.14 SECS, INTEGRAL =      5.20 TIME LEFT: 172794.76
 STEP:  36 TIME =     0.15 SECS, INTEGRAL =      5.35 TIME LEFT: 172794.61
 STEP:  37 TIME =     0.15 SECS, INTEGRAL =      5.50 TIME LEFT: 172794.46
 STEP:  38 TIME =     0.14 SECS, INTEGRAL =      5.64 TIME LEFT: 172794.32
 STEP:  39 TIME =     0.14 SECS, INTEGRAL =      5.78 TIME LEFT: 172794.18
 STEP:  40 TIME =     0.14 SECS, INTEGRAL =      5.91 TIME LEFT: 172794.05
 STEP:  41 TIME =     0.15 SECS, INTEGRAL =      6.06 TIME LEFT: 172793.90
 STEP:  42 TIME =     0.14 SECS, INTEGRAL =      6.20 TIME LEFT: 172793.76
 STEP:  43 TIME =     0.14 SECS, INTEGRAL =      6.34 TIME LEFT: 172793.62
 STEP:  44 TIME =     0.14 SECS, INTEGRAL =      6.48 TIME LEFT: 172793.48
 STEP:  45 TIME =     0.15 SECS, INTEGRAL =      6.63 TIME LEFT: 172793.33

(To convert to Hartree/Bohr^2, multiply by (10^(-21) x N x a0^2)/(4.184 x 627.51) =  0.0642)


           FORCE MATRIX IN MILLIDYNES/ANGSTROM


                  N  1       C  2       C  3       C  4       C  5       C  6
 ------------------------------------------------------------------------------
     N    1  12.650322
     C    2   3.365790  15.921254
     C    3   0.942130   5.864310  15.101579
     C    4   0.932534   5.890624   1.988977  15.097948
     C    5   0.135339   2.331014   6.054794   1.459678  14.968998
     C    6   0.135279   2.329744   1.458695   6.031822   2.225892  14.966165
     C    7   0.009462   1.643199   2.251267   2.252918   5.901230   5.918266
     H    8   0.040570   0.745764   3.431885   0.082558   0.735609   0.034363
     H    9   0.041749   0.745830   0.082410   3.430053   0.034332   0.735389
     H   10   0.013636   0.094270   0.739375   0.026174   3.421144   0.090421
     H   11   0.013561   0.093891   0.026222   0.739174   0.090857   3.421157
     H   12   0.018143   0.023633   0.091951   0.092708   0.717360   0.717248
     H   13   3.476895   0.761845   0.079613   0.063052   0.027647   0.022544
     H   14   3.468613   0.758597   0.056348   0.074234   0.023506   0.028392
     H   15   3.432049   0.746580   0.044763   0.049002   0.027441   0.028521


                  C  7       H  8       H  9       H 10       H 11       H 12
 ------------------------------------------------------------------------------
     C    7  14.907861
     H    8   0.097063   4.313377
     H    9   0.096948   0.007520   4.311580
     H   10   0.718826   0.037129   0.010937   4.284424
     H   11   0.719118   0.010869   0.037042   0.011090   4.284463
     H   12   3.422604   0.010701   0.010767   0.035539   0.035653   4.271454
     H   13   0.014668   0.006148   0.026659   0.003439   0.004321   0.004322
     H   14   0.015082   0.024718   0.007181   0.004254   0.003287   0.004569
     H   15   0.013975   0.014735   0.012893   0.003438   0.003214   0.005499


                  H 13       H 14       H 15
 ------------------------------------------
     H   13   4.168974
     H   14   0.589576   4.162781
     H   15   0.590608   0.591105   4.131724


          HEAT OF FORMATION =     178.299657 KCALS/MOLE

          ZERO POINT ENERGY      76.644 KCAL/MOL


           NORMAL COORDINATE ANALYSIS (Total motion = 1 Angstrom)


   Root No.       1         2         3         4         5         6         7         8

                 1 A       2 A       3 A       4 A       5 A       6 A       7 A       8 A   

                  29.2     189.2     346.1     361.0     438.3     517.4     601.7     603.0
  
           1    0.0000   -0.0004    0.0000    0.0005    0.0025    0.0950   -0.0009   -0.0003
           2    0.0032   -0.0003    0.0038    0.0719   -0.0001   -0.0007   -0.0001    0.0177
           3    0.0007    0.0623    0.0001    0.0003   -0.0132    0.0010    0.0008    0.0001
           4    0.0000   -0.0002    0.0000    0.0004    0.0017    0.0713   -0.0008   -0.0003
           5   -0.0030    0.0002   -0.0029   -0.0549   -0.0002    0.0007   -0.0004    0.0352
           6   -0.0012   -0.0410   -0.0004   -0.0000    0.0801   -0.0019    0.0730    0.0008
           7   -0.0012   -0.0002   -0.0015   -0.0201   -0.0006   -0.0182   -0.0000   -0.0732
           8   -0.0015    0.0002   -0.0019   -0.0423    0.0010    0.0480   -0.0010    0.0647
           9   -0.0121   -0.0605   -0.0636    0.0030    0.0012   -0.0014   -0.0354    0.0006
          10    0.0012   -0.0002    0.0015    0.0199   -0.0007   -0.0181   -0.0005    0.0731
          11   -0.0016    0.0004   -0.0024   -0.0426   -0.0008   -0.0467    0.0009    0.0654
          12    0.0109   -0.0607    0.0636   -0.0035    0.0017   -0.0018   -0.0352   -0.0006
          13   -0.0017    0.0003   -0.0010   -0.0269   -0.0011   -0.0288    0.0007   -0.0792
          14    0.0002   -0.0000    0.0000    0.0051    0.0009    0.0417   -0.0009   -0.0757
          15   -0.0110    0.0013    0.0659   -0.0022   -0.0462    0.0030    0.0302    0.0005
          16    0.0017    0.0002    0.0010    0.0264   -0.0012   -0.0288    0.0002    0.0796
          17    0.0001    0.0000    0.0005    0.0049   -0.0005   -0.0422    0.0011   -0.0750
          18    0.0115    0.0010   -0.0656    0.0021   -0.0465    0.0027    0.0302   -0.0006
          19   -0.0000    0.0008   -0.0000   -0.0004   -0.0014   -0.0950    0.0017    0.0004
          20    0.0005   -0.0003    0.0010    0.0194   -0.0003   -0.0005    0.0003   -0.0435
          21    0.0006    0.0673   -0.0001    0.0002    0.0553   -0.0022   -0.0280   -0.0004
          22   -0.0034   -0.0005   -0.0040   -0.0468   -0.0018   -0.0603   -0.0008   -0.0365
          23   -0.0028    0.0004   -0.0023   -0.0561    0.0005    0.0215   -0.0003    0.0787
          24   -0.0213   -0.1055   -0.1813    0.0076   -0.0405   -0.0032   -0.1825   -0.0008
          25    0.0033   -0.0007    0.0040    0.0460   -0.0019   -0.0609   -0.0010    0.0364
          26   -0.0030    0.0006   -0.0039   -0.0558    0.0001   -0.0202    0.0013    0.0790
          27    0.0198   -0.1059    0.1818   -0.0085   -0.0391   -0.0034   -0.1821   -0.0016
          28   -0.0025    0.0003   -0.0016   -0.0540   -0.0011    0.0112   -0.0001   -0.0442
          29    0.0007   -0.0000    0.0003    0.0203    0.0009    0.0161   -0.0004   -0.0885
          30   -0.0195    0.0067    0.1736   -0.0065   -0.1526    0.0092    0.0673    0.0006
          31    0.0025    0.0002    0.0016    0.0537   -0.0014    0.0102   -0.0004    0.0444
          32    0.0005   -0.0000    0.0017    0.0204    0.0003   -0.0170    0.0004   -0.0882
          33    0.0206    0.0064   -0.1731    0.0060   -0.1533    0.0091    0.0672   -0.0002
          34   -0.0000    0.0014   -0.0000   -0.0005   -0.0007   -0.0907    0.0009    0.0002
          35    0.0021   -0.0007    0.0024    0.0466   -0.0008   -0.0005    0.0003    0.0599
          36    0.0010    0.1588   -0.0006    0.0006    0.1582   -0.0079   -0.1297   -0.0009
          37   -0.0072    0.0308   -0.0050   -0.0906   -0.0288    0.0898   -0.0239    0.0012
          38   -0.1072    0.0012    0.0065    0.1198   -0.0010   -0.0005   -0.0004    0.0199
          39   -0.2616    0.0970    0.0011    0.0138   -0.0472    0.0013   -0.0234    0.0020
          40    0.0092    0.0451    0.0049    0.0813   -0.0441    0.0900   -0.0350   -0.0018
          41   -0.1631    0.0018    0.0068    0.1224   -0.0011   -0.0010   -0.0004    0.0205
          42    0.2334    0.0894   -0.0005   -0.0113   -0.0435    0.0014   -0.0219   -0.0019
          43   -0.0019   -0.0783    0.0002    0.0121    0.0827    0.0926    0.0589    0.0002
          44    0.2921   -0.0047    0.0045    0.0977    0.0019   -0.0008    0.0008    0.0167
          45    0.0345    0.0915    0.0001   -0.0014   -0.0444   -0.0002   -0.0223   -0.0004


   Root No.       9        10        11        12        13        14        15        16

                 9 A      10 A      11 A      12 A      13 A      14 A      15 A      16 A   

                 807.4     830.8     888.3     963.8    1017.0    1018.0    1051.2    1124.0
  
           1    0.0030    0.0843    0.0000    0.0001   -0.0001    0.0640   -0.0004    0.0007
           2   -0.0000   -0.0005    0.0000    0.0000    0.0001   -0.0000   -0.0000    0.0394
           3    0.0039    0.0005   -0.0000   -0.0079    0.0000    0.0000    0.0037    0.0000
           4   -0.0004    0.0002    0.0000    0.0008    0.0001   -0.0645    0.0002   -0.0000
           5   -0.0001    0.0000   -0.0000    0.0001    0.0001   -0.0001   -0.0000    0.0295
           6    0.0252   -0.0049    0.0001   -0.0184    0.0000   -0.0008    0.0050    0.0003
           7   -0.0016   -0.0428   -0.0003   -0.0001   -0.0004    0.0212   -0.0002   -0.0070
           8   -0.0004   -0.0049    0.0000    0.0005    0.0001   -0.0965    0.0005   -0.0273
           9   -0.0169    0.0017   -0.0378    0.0433   -0.0429   -0.0001   -0.0226   -0.0001
          10   -0.0017   -0.0432    0.0003   -0.0000    0.0004    0.0209   -0.0002    0.0076
          11    0.0006    0.0053   -0.0003   -0.0009   -0.0005    0.0966   -0.0003   -0.0273
          12   -0.0170    0.0018    0.0378    0.0434    0.0427    0.0010   -0.0223   -0.0002
          13   -0.0018   -0.0484   -0.0002   -0.0005    0.0003   -0.0003    0.0005    0.0048
          14   -0.0029   -0.0803    0.0001   -0.0006   -0.0003    0.0192   -0.0002   -0.0188
          15   -0.0171    0.0020   -0.0269   -0.0072    0.0497    0.0006    0.0485   -0.0003
          16   -0.0018   -0.0488    0.0002   -0.0005   -0.0003   -0.0003    0.0004   -0.0055
          17    0.0030    0.0803   -0.0001    0.0007    0.0002   -0.0191   -0.0002   -0.0173
          18   -0.0172    0.0027    0.0267   -0.0076   -0.0501    0.0002    0.0481    0.0002
          19    0.0029    0.0796   -0.0000    0.0005    0.0001   -0.0476   -0.0003   -0.0008
          20    0.0001   -0.0000    0.0001    0.0002    0.0002   -0.0001    0.0003    0.0240
          21   -0.0225    0.0023   -0.0001   -0.0386    0.0004   -0.0006   -0.0600    0.0001
          22    0.0005   -0.0170    0.0023   -0.0024    0.0022   -0.0062    0.0010    0.0427
          23   -0.0002    0.0075   -0.0006    0.0012   -0.0001   -0.1024    0.0004    0.0053
          24    0.0992   -0.0060    0.2329   -0.2072    0.1794   -0.0027    0.0738   -0.0015
          25    0.0005   -0.0173   -0.0023   -0.0024   -0.0022   -0.0069    0.0010   -0.0374
          26   -0.0006   -0.0070    0.0013    0.0006    0.0010    0.1026   -0.0010    0.0021
          27    0.1007   -0.0062   -0.2326   -0.2078   -0.1784   -0.0028    0.0723    0.0018
          28   -0.0023   -0.0986    0.0011   -0.0001   -0.0020   -0.0715   -0.0008   -0.0883
          29   -0.0024   -0.0440   -0.0008   -0.0007    0.0011    0.0545    0.0006    0.0361
          30    0.1890   -0.0203    0.2005    0.0326   -0.2245   -0.0017   -0.1820    0.0012
          31   -0.0023   -0.0997   -0.0011   -0.0001    0.0022   -0.0714   -0.0007    0.0900
          32    0.0008    0.0436    0.0009    0.0005   -0.0006   -0.0547    0.0009    0.0393
          33    0.1898   -0.0200   -0.1990    0.0341    0.2258   -0.0010   -0.1805   -0.0009
          34    0.0041    0.0704    0.0000    0.0022    0.0001   -0.0459    0.0017   -0.0008
          35   -0.0008    0.0000    0.0002   -0.0009    0.0003   -0.0003   -0.0010    0.0339
          36    0.1975   -0.0235    0.0009    0.2214   -0.0016    0.0043    0.2282    0.0001
          37   -0.0150    0.0728    0.0005    0.0227    0.0009    0.0521   -0.0094    0.2111
          38   -0.0007   -0.0022    0.0002    0.0011   -0.0001   -0.0057   -0.0006   -0.0711
          39   -0.0173    0.0027    0.0013    0.0212    0.0009    0.0031   -0.0086   -0.0069
          40   -0.0233    0.0762   -0.0009    0.0334   -0.0015    0.0524   -0.0138   -0.1873
          41    0.0006    0.0025   -0.0000   -0.0014   -0.0003    0.0051    0.0008   -0.0741
          42   -0.0162    0.0033   -0.0008    0.0202   -0.0007    0.0044   -0.0081    0.0075
          43    0.0478    0.0736    0.0003   -0.0575    0.0003    0.0505    0.0231   -0.0270
          44    0.0004    0.0005    0.0020    0.0000    0.0012    0.0007   -0.0001   -0.0759
          45   -0.0158   -0.0030    0.0000    0.0181   -0.0001   -0.0068   -0.0070   -0.0007


   Root No.      17        18        19        20        21        22        23        24

                17 A      18 A      19 A      20 A      21 A      22 A      23 A      24 A   

                1163.3    1180.2    1196.8    1216.6    1258.9    1304.2    1328.1    1374.5
  
           1   -0.0084   -0.0013   -0.0002    0.0004    0.0016   -0.0547    0.0012    0.0003
           2    0.0005   -0.0002   -0.0205    0.0083   -0.0003   -0.0001    0.0033   -0.0124
           3    0.0052    0.0552   -0.0002    0.0001    0.0013   -0.0007    0.0000   -0.0001
           4    0.0208   -0.0022    0.0001   -0.0006   -0.0067    0.1271   -0.0025   -0.0011
           5    0.0007    0.0003    0.0118   -0.0131   -0.0002    0.0010    0.0033    0.0368
           6   -0.0049   -0.0486    0.0002   -0.0001   -0.0007    0.0001    0.0000    0.0002
           7   -0.0134    0.0016    0.0048    0.0405    0.0009    0.0360   -0.0513   -0.0169
           8    0.0014   -0.0011   -0.0091    0.0007    0.0098   -0.0371   -0.0207    0.0002
           9    0.0010    0.0103    0.0000   -0.0003    0.0003   -0.0007    0.0003    0.0001
          10   -0.0133    0.0017   -0.0047   -0.0410    0.0008    0.0390    0.0499    0.0162
          11   -0.0025    0.0008   -0.0088    0.0001   -0.0096    0.0359   -0.0221   -0.0002
          12    0.0010    0.0104   -0.0001    0.0003    0.0002   -0.0004   -0.0005   -0.0001
          13    0.0061    0.0001    0.0019   -0.0261   -0.0007   -0.0225    0.0218    0.0475
          14    0.0349   -0.0045   -0.0148    0.0037    0.0110   -0.0544   -0.0011   -0.0248
          15    0.0000   -0.0009   -0.0001    0.0002    0.0000   -0.0001   -0.0002   -0.0004
          16    0.0060   -0.0000   -0.0018    0.0263   -0.0006   -0.0251   -0.0210   -0.0470
          17   -0.0357    0.0043   -0.0144    0.0032   -0.0108    0.0536   -0.0036   -0.0260
          18   -0.0002   -0.0008   -0.0000   -0.0002   -0.0001    0.0004    0.0001    0.0002
          19    0.0500   -0.0066   -0.0004    0.0003   -0.0007   -0.0549    0.0012    0.0005
          20    0.0005    0.0001    0.0207   -0.0163   -0.0001    0.0015    0.0516    0.0152
          21   -0.0003    0.0004    0.0001   -0.0001   -0.0000    0.0004    0.0002    0.0001
          22   -0.1515    0.0160    0.1630   -0.0009    0.2109   -0.0176    0.0838   -0.1564
          23   -0.0763    0.0071    0.0827   -0.0215    0.1311   -0.0695    0.0558   -0.0811
          24   -0.0028   -0.0452   -0.0014   -0.0000   -0.0026    0.0014   -0.0010    0.0012
          25   -0.1553    0.0149   -0.1626    0.0022    0.2102   -0.0151   -0.0832    0.1582
          26    0.0768   -0.0061    0.0819   -0.0228   -0.1292    0.0682    0.0523   -0.0820
          27   -0.0020   -0.0447    0.0022   -0.0003   -0.0037    0.0019    0.0013   -0.0018
          28   -0.1400    0.0213   -0.0814    0.1018   -0.1832   -0.1355    0.2464   -0.0353
          29    0.1168   -0.0165    0.0368   -0.0669    0.1175    0.0138   -0.1328    0.0227
          30    0.0012   -0.0023    0.0008   -0.0011    0.0019    0.0011   -0.0023    0.0003
          31   -0.1346    0.0223    0.0833   -0.1016   -0.1815   -0.1538   -0.2417    0.0372
          32   -0.1150    0.0171    0.0386   -0.0680   -0.1173   -0.0243   -0.1339    0.0228
          33    0.0002   -0.0023   -0.0005    0.0005    0.0009    0.0011    0.0011   -0.0001
          34    0.0449   -0.0059   -0.0005   -0.0006   -0.0023   -0.0541    0.0012    0.0001
          35    0.0012    0.0001    0.1128    0.3959   -0.0011    0.0068    0.0194    0.1841
          36   -0.0007   -0.0033    0.0005    0.0017    0.0000    0.0006    0.0001    0.0008
          37   -0.0154   -0.1190   -0.0982    0.0560    0.0005   -0.0187    0.0056   -0.0634
          38    0.0000   -0.0128    0.0325   -0.0232   -0.0019    0.0033    0.0014    0.0263
          39   -0.0105   -0.1188    0.0039   -0.0023   -0.0046    0.0011   -0.0007    0.0055
          40   -0.0258   -0.1770    0.0879   -0.0501    0.0010   -0.0156   -0.0049    0.0576
          41   -0.0020    0.0163    0.0342   -0.0240    0.0036   -0.0027    0.0011    0.0291
          42   -0.0097   -0.1110   -0.0040    0.0022   -0.0048    0.0004    0.0004   -0.0062
          43    0.0252    0.3102    0.0113   -0.0065    0.0063   -0.0171   -0.0006    0.0084
          44   -0.0018   -0.0020    0.0391   -0.0265    0.0012    0.0000    0.0022    0.0364
          45   -0.0078   -0.0918    0.0013   -0.0007   -0.0013    0.0042    0.0002    0.0013


   Root No.      25        26        27        28        29        30        31        32

                25 A      26 A      27 A      28 A      29 A      30 A      31 A      32 A   

                1527.1    1543.0    1568.5    1570.5    1609.8    1659.9    1722.3    2615.9
  
           1   -0.0210    0.0010   -0.0096   -0.0103   -0.0410    0.0112    0.0006   -0.0003
           2   -0.0000   -0.0189    0.0224   -0.0127   -0.0021    0.0005   -0.0136    0.0028
           3   -0.0014    0.0000   -0.0123   -0.0245    0.0073   -0.0012   -0.0001   -0.0427
           4    0.0576   -0.0009   -0.0066   -0.0070   -0.0187    0.0410   -0.0011   -0.0009
           5    0.0017    0.0499    0.0072   -0.0037    0.0002   -0.0004    0.1677    0.0002
           6   -0.0001    0.0002   -0.0021   -0.0043    0.0019    0.0001    0.0007   -0.0025
           7   -0.0374    0.0430    0.0129   -0.0041    0.0013   -0.1345   -0.0267    0.0001
           8   -0.0475   -0.0135    0.0044    0.0033    0.0094   -0.0300   -0.0815    0.0002
           9    0.0001   -0.0003   -0.0002    0.0004    0.0000    0.0008   -0.0002   -0.0001
          10   -0.0394   -0.0426   -0.0094    0.0081    0.0028   -0.1327    0.0281    0.0001
          11    0.0461   -0.0150   -0.0030   -0.0044   -0.0104    0.0295   -0.0825   -0.0004
          12    0.0005    0.0002    0.0003   -0.0001   -0.0001    0.0011   -0.0005   -0.0001
          13   -0.0243   -0.0374   -0.0032    0.0057    0.0100    0.1518   -0.0396   -0.0001
          14    0.0395   -0.0283   -0.0135    0.0032   -0.0071   -0.0496    0.0635   -0.0001
          15    0.0003    0.0002    0.0000    0.0000   -0.0001   -0.0013    0.0006   -0.0000
          16   -0.0221    0.0394    0.0087   -0.0005    0.0098    0.1506    0.0392   -0.0001
          17   -0.0404   -0.0266   -0.0081    0.0088    0.0090    0.0515    0.0640    0.0001
          18   -0.0000   -0.0004   -0.0001    0.0002   -0.0001   -0.0009   -0.0000   -0.0000
          19    0.0374   -0.0010   -0.0028   -0.0028   -0.0080   -0.0735    0.0000   -0.0001
          20    0.0014    0.0733    0.0244   -0.0134   -0.0018   -0.0016   -0.1128   -0.0000
          21   -0.0003    0.0003    0.0001   -0.0000    0.0001    0.0005   -0.0005    0.0000
          22    0.1073   -0.0576   -0.0211    0.0034   -0.0233    0.0014    0.0021    0.0003
          23    0.0393   -0.0636   -0.0137    0.0067   -0.0055    0.0205   -0.0330   -0.0008
          24   -0.0004   -0.0002    0.0015   -0.0019    0.0008    0.0002    0.0002    0.0006
          25    0.1096    0.0540    0.0108   -0.0146   -0.0263    0.0001   -0.0026    0.0013
          26   -0.0415   -0.0618   -0.0128    0.0077    0.0066   -0.0183   -0.0331    0.0021
          27   -0.0007   -0.0003   -0.0017    0.0016    0.0008    0.0000   -0.0005    0.0004
          28    0.1104    0.0368   -0.0010   -0.0105   -0.0172   -0.0346    0.0300    0.0005
          29   -0.0451   -0.0588   -0.0100    0.0107    0.0096    0.0423   -0.0047    0.0010
          30   -0.0009   -0.0006   -0.0001   -0.0004    0.0002    0.0005   -0.0002    0.0001
          31    0.1080   -0.0404   -0.0132   -0.0042   -0.0173   -0.0343   -0.0309    0.0004
          32    0.0426   -0.0607   -0.0169    0.0037   -0.0085   -0.0409   -0.0051   -0.0008
          33   -0.0006    0.0001   -0.0003   -0.0001    0.0001    0.0001    0.0002    0.0001
          34    0.0289   -0.0003   -0.0018   -0.0019   -0.0046   -0.0380   -0.0003    0.0009
          35   -0.0031   -0.1326   -0.0289    0.0154    0.0013    0.0014    0.0142    0.0000
          36   -0.0002   -0.0006   -0.0002   -0.0001    0.0000    0.0004    0.0001    0.0001
          37    0.0518   -0.0119   -0.1019    0.0748    0.2664   -0.0264   -0.1026   -0.0830
          38   -0.0146    0.0159    0.0541    0.1146   -0.1464    0.0167    0.0382   -0.1795
          39    0.0175    0.0426    0.0031    0.3487   -0.0329   -0.0004   -0.0288    0.0542
          40    0.0535    0.0036    0.1253   -0.0907    0.2506   -0.0276    0.0866   -0.0984
          41    0.0102    0.0369   -0.1402   -0.1266    0.1541   -0.0175    0.0211    0.1926
          42    0.0203   -0.0586    0.2861    0.0993   -0.0191   -0.0033    0.0371    0.1162
          43    0.0565   -0.0034    0.1413    0.1921    0.1737   -0.0278    0.0102    0.1921
          44    0.0022    0.1131   -0.2810    0.2197    0.0266   -0.0033   -0.0283   -0.0531
          45   -0.0198    0.0152   -0.0951   -0.0610   -0.0726    0.0167   -0.0078    0.4548


   Root No.      33        34        35        36        37        38        39

                33 A      34 A      35 A      36 A      37 A      38 A      39 A   

                2622.3    2700.7    2717.7    2726.0    2731.6    2739.3    2749.6
  
           1   -0.0000   -0.0165    0.0012    0.0000   -0.0006   -0.0001    0.0018
           2   -0.0451   -0.0003    0.0000    0.0004   -0.0001   -0.0014    0.0000
           3   -0.0029    0.0015   -0.0001    0.0000    0.0002   -0.0000   -0.0002
           4    0.0002   -0.0060    0.0005    0.0000   -0.0005   -0.0000    0.0019
           5   -0.0035   -0.0000    0.0000    0.0031   -0.0001   -0.0038   -0.0001
           6   -0.0002    0.0000   -0.0000    0.0000    0.0000   -0.0000   -0.0000
           7   -0.0001    0.0018    0.0034   -0.0068   -0.0063    0.0118    0.0073
           8    0.0018   -0.0031   -0.0030    0.0065    0.0109   -0.0207   -0.0154
           9   -0.0000    0.0000   -0.0000    0.0001    0.0001   -0.0002   -0.0001
          10   -0.0000    0.0018    0.0034    0.0070   -0.0066   -0.0116    0.0067
          11    0.0019    0.0032    0.0031    0.0069   -0.0117   -0.0209    0.0147
          12    0.0000    0.0000   -0.0000   -0.0000    0.0000   -0.0000    0.0000
          13    0.0003    0.0004    0.0063   -0.0130   -0.0083   -0.0031   -0.0053
          14   -0.0000   -0.0003    0.0147   -0.0203   -0.0089   -0.0087   -0.0111
          15    0.0000   -0.0000    0.0000   -0.0000    0.0000   -0.0000   -0.0000
          16   -0.0002    0.0005    0.0063    0.0132   -0.0080    0.0039   -0.0053
          17   -0.0001    0.0002   -0.0146   -0.0203    0.0083   -0.0098    0.0109
          18   -0.0000   -0.0000   -0.0001   -0.0002    0.0001   -0.0001    0.0001
          19    0.0000   -0.0028   -0.0252    0.0001   -0.0184    0.0007   -0.0100
          20    0.0004   -0.0000   -0.0001   -0.0044   -0.0001   -0.0010   -0.0000
          21    0.0000    0.0000    0.0002   -0.0000    0.0001   -0.0000    0.0001
          22    0.0095   -0.0252   -0.0259    0.0626    0.0853   -0.1581   -0.1062
          23   -0.0142    0.0418    0.0468   -0.1104   -0.1484    0.2763    0.1853
          24    0.0002    0.0003    0.0004   -0.0009   -0.0012    0.0022    0.0015
          25   -0.0098   -0.0258   -0.0263   -0.0652    0.0899    0.1572   -0.0994
          26   -0.0149   -0.0432   -0.0480   -0.1162    0.1583    0.2777   -0.1753
          27   -0.0002   -0.0001   -0.0000   -0.0001    0.0001    0.0001   -0.0001
          28   -0.0014   -0.0003   -0.1070    0.1638    0.0767    0.0590    0.0768
          29   -0.0018   -0.0005   -0.1832    0.2830    0.1326    0.1015    0.1319
          30    0.0000    0.0000   -0.0001    0.0001    0.0001    0.0000    0.0000
          31    0.0011   -0.0003   -0.1069   -0.1656    0.0724   -0.0682    0.0764
          32   -0.0013    0.0006    0.1815    0.2838   -0.1242    0.1166   -0.1302
          33   -0.0000    0.0000    0.0015    0.0023   -0.0010    0.0010   -0.0011
          34   -0.0002    0.0338    0.3367   -0.0012    0.2456   -0.0090    0.1179
          35   -0.0000    0.0001    0.0007   -0.0009    0.0005    0.0003    0.0003
          36    0.0000   -0.0002   -0.0023    0.0000   -0.0017    0.0001   -0.0008
          37    0.1800    0.1052   -0.0086   -0.0021    0.0051    0.0067   -0.0124
          38    0.3681    0.2457   -0.0193   -0.0035    0.0114    0.0121   -0.0269
          39   -0.1725   -0.1065    0.0082    0.0015   -0.0048   -0.0054    0.0116
          40   -0.1705    0.1029   -0.0082    0.0014    0.0046   -0.0052   -0.0122
          41    0.3058   -0.2136    0.0166   -0.0018   -0.0093    0.0083    0.0238
          42    0.2423   -0.1571    0.0120   -0.0013   -0.0066    0.0061    0.0174
          43   -0.0105    0.0902   -0.0069   -0.0000    0.0032   -0.0003   -0.0102
          44   -0.0225   -0.0276    0.0021   -0.0001   -0.0011    0.0002    0.0030
          45   -0.0277    0.2424   -0.0183   -0.0002    0.0087   -0.0005   -0.0263


           MASS-WEIGHTED COORDINATE ANALYSIS (NORMAL COORDINATES)


   Root No.       1         2         3         4         5         6         7         8

                 1 A       2 A       3 A       4 A       5 A       6 A       7 A       8 A   

                  29.2     189.2     346.1     361.0     438.3     517.4     601.7     603.0
  
           1    0.0001   -0.0029    0.0002    0.0038    0.0186    0.5226   -0.0074   -0.0015
           2    0.0236   -0.0024    0.0245    0.5296   -0.0009   -0.0039   -0.0007    0.0857
           3    0.0054    0.4253    0.0004    0.0023   -0.0966    0.0054    0.0066    0.0004
           4    0.0001   -0.0013    0.0001    0.0027    0.0119    0.3634   -0.0061   -0.0012
           5   -0.0202    0.0015   -0.0175   -0.3741   -0.0014    0.0035   -0.0030    0.1574
           6   -0.0085   -0.2594   -0.0025   -0.0000    0.5452   -0.0097    0.5331    0.0034
           7   -0.0080   -0.0011   -0.0089   -0.1371   -0.0039   -0.0926   -0.0000   -0.3278
           8   -0.0104    0.0013   -0.0114   -0.2884    0.0067    0.2443   -0.0070    0.2897
           9   -0.0827   -0.3823   -0.3843    0.0204    0.0085   -0.0073   -0.2582    0.0026
          10    0.0079   -0.0015    0.0089    0.1356   -0.0045   -0.0923   -0.0036    0.3272
          11   -0.0111    0.0025   -0.0148   -0.2906   -0.0052   -0.2378    0.0064    0.2924
          12    0.0743   -0.3840    0.3847   -0.0236    0.0115   -0.0094   -0.2569   -0.0028
          13   -0.0117    0.0017   -0.0059   -0.1832   -0.0074   -0.1469    0.0051   -0.3546
          14    0.0012   -0.0002    0.0000    0.0348    0.0058    0.2124   -0.0065   -0.3386
          15   -0.0753    0.0080    0.3982   -0.0153   -0.3142    0.0154    0.2208    0.0023
          16    0.0117    0.0013    0.0058    0.1800   -0.0081   -0.1467    0.0012    0.3561
          17    0.0005    0.0002    0.0033    0.0336   -0.0033   -0.2147    0.0081   -0.3357
          18    0.0785    0.0065   -0.3964    0.0142   -0.3161    0.0136    0.2203   -0.0029
          19   -0.0001    0.0049   -0.0001   -0.0029   -0.0097   -0.4842    0.0122    0.0019
          20    0.0034   -0.0019    0.0058    0.1325   -0.0020   -0.0026    0.0019   -0.1945
          21    0.0040    0.4255   -0.0007    0.0016    0.3763   -0.0111   -0.2043   -0.0019
          22   -0.0067   -0.0010   -0.0070   -0.0924   -0.0035   -0.0890   -0.0017   -0.0473
          23   -0.0056    0.0007   -0.0041   -0.1108    0.0010    0.0317   -0.0005    0.1020
          24   -0.0422   -0.1932   -0.3175    0.0149   -0.0797   -0.0048   -0.3860   -0.0010
          25    0.0065   -0.0012    0.0069    0.0909   -0.0038   -0.0898   -0.0022    0.0472
          26   -0.0058    0.0012   -0.0068   -0.1102    0.0002   -0.0298    0.0028    0.1024
          27    0.0391   -0.1939    0.3184   -0.0169   -0.0770   -0.0051   -0.3852   -0.0021
          28   -0.0050    0.0005   -0.0027   -0.1067   -0.0022    0.0165   -0.0001   -0.0574
          29    0.0013   -0.0001    0.0005    0.0402    0.0017    0.0237   -0.0009   -0.1147
          30   -0.0386    0.0123    0.3040   -0.0127   -0.3007    0.0136    0.1424    0.0008
          31    0.0050    0.0003    0.0027    0.1061   -0.0028    0.0150   -0.0008    0.0575
          32    0.0010   -0.0001    0.0031    0.0402    0.0006   -0.0250    0.0008   -0.1143
          33    0.0407    0.0116   -0.3031    0.0119   -0.3020    0.0134    0.1421   -0.0002
          34   -0.0000    0.0026   -0.0000   -0.0009   -0.0013   -0.1339    0.0018    0.0002
          35    0.0042   -0.0013    0.0042    0.0920   -0.0015   -0.0008    0.0007    0.0777
          36    0.0020    0.2908   -0.0010    0.0012    0.3117   -0.0116   -0.2744   -0.0011
          37   -0.0143    0.0565   -0.0088   -0.1790   -0.0568    0.1325   -0.0505    0.0015
          38   -0.2118    0.0022    0.0114    0.2365   -0.0019   -0.0007   -0.0009    0.0258
          39   -0.5171    0.1776    0.0019    0.0273   -0.0930    0.0019   -0.0496    0.0026
          40    0.0182    0.0826    0.0086    0.1605   -0.0869    0.1328   -0.0741   -0.0023
          41   -0.3223    0.0033    0.0118    0.2416   -0.0021   -0.0015   -0.0008    0.0265
          42    0.4612    0.1638   -0.0009   -0.0224   -0.0858    0.0020   -0.0463   -0.0024
          43   -0.0037   -0.1434    0.0004    0.0239    0.1629    0.1367    0.1247    0.0002
          44    0.5774   -0.0086    0.0079    0.1930    0.0037   -0.0012    0.0018    0.0217
          45    0.0681    0.1676    0.0002   -0.0028   -0.0874   -0.0003   -0.0471   -0.0006


   Root No.       9        10        11        12        13        14        15        16

                 9 A      10 A      11 A      12 A      13 A      14 A      15 A      16 A   

                 807.4     830.8     888.3     963.8    1017.0    1018.0    1051.2    1124.0
  
           1    0.0278    0.4553    0.0000    0.0011   -0.0007    0.3667   -0.0032    0.0060
           2   -0.0004   -0.0025    0.0000    0.0004    0.0009   -0.0002   -0.0001    0.3402
           3    0.0364    0.0026   -0.0002   -0.0643    0.0002    0.0000    0.0281    0.0001
           4   -0.0033    0.0012    0.0000    0.0057    0.0007   -0.3425    0.0012   -0.0004
           5   -0.0009    0.0002   -0.0002    0.0006    0.0004   -0.0005   -0.0001    0.2363
           6    0.2157   -0.0247    0.0005   -0.1376    0.0001   -0.0044    0.0349    0.0023
           7   -0.0141   -0.2140   -0.0024   -0.0004   -0.0029    0.1126   -0.0017   -0.0561
           8   -0.0036   -0.0247    0.0000    0.0040    0.0009   -0.5122    0.0035   -0.2185
           9   -0.1447    0.0086   -0.2668    0.3241   -0.2856   -0.0003   -0.1594   -0.0006
          10   -0.0143   -0.2160    0.0024   -0.0003    0.0024    0.1110   -0.0016    0.0605
          11    0.0050    0.0267   -0.0022   -0.0069   -0.0036    0.5132   -0.0023   -0.2182
          12   -0.1457    0.0088    0.2664    0.3255    0.2848    0.0052   -0.1570   -0.0020
          13   -0.0151   -0.2421   -0.0015   -0.0035    0.0023   -0.0016    0.0032    0.0382
          14   -0.0247   -0.4013    0.0006   -0.0046   -0.0023    0.1019   -0.0014   -0.1505
          15   -0.1465    0.0101   -0.1899   -0.0543    0.3312    0.0031    0.3412   -0.0024
          16   -0.0153   -0.2442    0.0015   -0.0036   -0.0023   -0.0017    0.0031   -0.0442
          17    0.0260    0.4014   -0.0010    0.0050    0.0010   -0.1017   -0.0016   -0.1383
          18   -0.1475    0.0136    0.1886   -0.0568   -0.3336    0.0008    0.3389    0.0012
          19    0.0248    0.3980   -0.0000    0.0037    0.0005   -0.2530   -0.0021   -0.0067
          20    0.0008   -0.0000    0.0010    0.0013    0.0012   -0.0005    0.0019    0.1919
          21   -0.1922    0.0115   -0.0005   -0.2892    0.0025   -0.0030   -0.4220    0.0009
          22    0.0011   -0.0246    0.0048   -0.0053    0.0043   -0.0095    0.0021    0.0991
          23   -0.0006    0.0108   -0.0012    0.0025   -0.0003   -0.1575    0.0008    0.0124
          24    0.2458   -0.0086    0.4760   -0.4496    0.3462   -0.0042    0.1504   -0.0035
          25    0.0011   -0.0251   -0.0047   -0.0053   -0.0042   -0.0107    0.0020   -0.0866
          26   -0.0014   -0.0101    0.0027    0.0012    0.0019    0.1579   -0.0020    0.0048
          27    0.2494   -0.0089   -0.4755   -0.4511   -0.3444   -0.0043    0.1475    0.0041
          28   -0.0056   -0.1429    0.0023   -0.0002   -0.0038   -0.1101   -0.0015   -0.2046
          29   -0.0060   -0.0637   -0.0016   -0.0016    0.0022    0.0839    0.0013    0.0837
          30    0.4683   -0.0294    0.4098    0.0706   -0.4333   -0.0026   -0.3712    0.0029
          31   -0.0057   -0.1443   -0.0023   -0.0002    0.0043   -0.1098   -0.0015    0.2085
          32    0.0019    0.0631    0.0019    0.0010   -0.0011   -0.0842    0.0019    0.0912
          33    0.4701   -0.0290   -0.4068    0.0740    0.4359   -0.0015   -0.3681   -0.0020
          34    0.0101    0.1020    0.0000    0.0048    0.0001   -0.0706    0.0035   -0.0018
          35   -0.0021    0.0000    0.0005   -0.0020    0.0006   -0.0004   -0.0020    0.0786
          36    0.4893   -0.0341    0.0018    0.4806   -0.0031    0.0066    0.4654    0.0003
          37   -0.0371    0.1054    0.0011    0.0492    0.0018    0.0802   -0.0192    0.4893
          38   -0.0017   -0.0031    0.0004    0.0024   -0.0002   -0.0088   -0.0012   -0.1647
          39   -0.0428    0.0039    0.0026    0.0459    0.0016    0.0048   -0.0175   -0.0159
          40   -0.0576    0.1103   -0.0018    0.0724   -0.0029    0.0807   -0.0281   -0.4340
          41    0.0014    0.0036   -0.0001   -0.0031   -0.0006    0.0079    0.0016   -0.1717
          42   -0.0402    0.0048   -0.0017    0.0438   -0.0014    0.0068   -0.0166    0.0174
          43    0.1185    0.1067    0.0007   -0.1248    0.0006    0.0777    0.0471   -0.0626
          44    0.0009    0.0008    0.0040    0.0001    0.0022    0.0011   -0.0002   -0.1758
          45   -0.0393   -0.0043    0.0001    0.0394   -0.0001   -0.0104   -0.0142   -0.0017


   Root No.      17        18        19        20        21        22        23        24

                17 A      18 A      19 A      20 A      21 A      22 A      23 A      24 A   

                1163.3    1180.2    1196.8    1216.6    1258.9    1304.2    1328.1    1374.5
  
           1   -0.0706   -0.0095   -0.0022    0.0028    0.0126   -0.2956    0.0082    0.0025
           2    0.0041   -0.0018   -0.2061    0.0608   -0.0024   -0.0006    0.0230   -0.1020
           3    0.0431    0.4057   -0.0021    0.0008    0.0103   -0.0036    0.0002   -0.0006
           4    0.1611   -0.0152    0.0009   -0.0042   -0.0494    0.6365   -0.0161   -0.0083
           5    0.0057    0.0024    0.1098   -0.0888   -0.0014    0.0048    0.0210    0.2795
           6   -0.0376   -0.3305    0.0015   -0.0008   -0.0053    0.0006    0.0001    0.0013
           7   -0.1039    0.0109    0.0450    0.2758    0.0063    0.1805   -0.3288   -0.1286
           8    0.0111   -0.0073   -0.0844    0.0047    0.0720   -0.1857   -0.1324    0.0017
           9    0.0081    0.0704    0.0003   -0.0020    0.0020   -0.0034    0.0019    0.0006
          10   -0.1032    0.0116   -0.0434   -0.2787    0.0061    0.1951    0.3201    0.1226
          11   -0.0194    0.0055   -0.0824    0.0010   -0.0705    0.1798   -0.1414   -0.0016
          12    0.0079    0.0705   -0.0014    0.0022    0.0014   -0.0020   -0.0029   -0.0006
          13    0.0470    0.0009    0.0179   -0.1775   -0.0053   -0.1124    0.1398    0.3605
          14    0.2705   -0.0306   -0.1382    0.0252    0.0801   -0.2725   -0.0074   -0.1882
          15    0.0003   -0.0064   -0.0007    0.0014    0.0001   -0.0003   -0.0012   -0.0031
          16    0.0467   -0.0002   -0.0165    0.1793   -0.0041   -0.1258   -0.1348   -0.3564
          17   -0.2764    0.0292   -0.1339    0.0216   -0.0792    0.2686   -0.0229   -0.1972
          18   -0.0019   -0.0053   -0.0004   -0.0011   -0.0006    0.0021    0.0009    0.0014
          19    0.3874   -0.0448   -0.0036    0.0020   -0.0053   -0.2751    0.0074    0.0035
          20    0.0042    0.0010    0.1929   -0.1110   -0.0009    0.0075    0.3305    0.1152
          21   -0.0025    0.0025    0.0009   -0.0006   -0.0000    0.0020    0.0014    0.0005
          22   -0.3397    0.0315    0.4400   -0.0018    0.4471   -0.0256    0.1556   -0.3439
          23   -0.1712    0.0139    0.2232   -0.0424    0.2779   -0.1008    0.1036   -0.1783
          24   -0.0062   -0.0890   -0.0037   -0.0001   -0.0055    0.0020   -0.0018    0.0026
          25   -0.3482    0.0295   -0.4391    0.0044    0.4457   -0.0219   -0.1545    0.3478
          26    0.1722   -0.0120    0.2211   -0.0450   -0.2739    0.0990    0.0970   -0.1804
          27   -0.0045   -0.0881    0.0061   -0.0006   -0.0078    0.0028    0.0025   -0.0040
          28   -0.3140    0.0419   -0.2198    0.2006   -0.3884   -0.1965    0.4575   -0.0776
          29    0.2618   -0.0324    0.0993   -0.1318    0.2491    0.0200   -0.2465    0.0499
          30    0.0028   -0.0044    0.0023   -0.0021    0.0040    0.0017   -0.0043    0.0007
          31   -0.3019    0.0439    0.2249   -0.2002   -0.3847   -0.2231   -0.4488    0.0819
          32   -0.2579    0.0336    0.1043   -0.1340   -0.2488   -0.0353   -0.2486    0.0501
          33    0.0004   -0.0045   -0.0014    0.0009    0.0019    0.0016    0.0021   -0.0003
          34    0.1006   -0.0117   -0.0015   -0.0012   -0.0048   -0.0784    0.0022    0.0002
          35    0.0027    0.0001    0.3045    0.7803   -0.0024    0.0099    0.0360    0.4047
          36   -0.0015   -0.0064    0.0013    0.0033    0.0000    0.0008    0.0001    0.0017
          37   -0.0346   -0.2346   -0.2652    0.1103    0.0011   -0.0271    0.0105   -0.1394
          38    0.0000   -0.0253    0.0878   -0.0457   -0.0041    0.0048    0.0026    0.0579
          39   -0.0236   -0.2342    0.0105   -0.0045   -0.0097    0.0016   -0.0013    0.0121
          40   -0.0578   -0.3489    0.2374   -0.0988    0.0022   -0.0227   -0.0091    0.1267
          41   -0.0045    0.0322    0.0923   -0.0474    0.0077   -0.0039    0.0021    0.0641
          42   -0.0218   -0.2187   -0.0109    0.0043   -0.0101    0.0005    0.0007   -0.0137
          43    0.0565    0.6114    0.0306   -0.0128    0.0134   -0.0248   -0.0011    0.0184
          44   -0.0040   -0.0039    0.1057   -0.0522    0.0026    0.0001    0.0041    0.0801
          45   -0.0174   -0.1809    0.0035   -0.0014   -0.0028    0.0060    0.0003    0.0029


   Root No.      25        26        27        28        29        30        31        32

                25 A      26 A      27 A      28 A      29 A      30 A      31 A      32 A   

                1527.1    1543.0    1568.5    1570.5    1609.8    1659.9    1722.3    2615.9
  
           1   -0.1517    0.0073   -0.0695   -0.0724   -0.3029    0.0388    0.0023   -0.0016
           2   -0.0000   -0.1377    0.1617   -0.0891   -0.0152    0.0018   -0.0557    0.0168
           3   -0.0104    0.0001   -0.0889   -0.1717    0.0543   -0.0043   -0.0003   -0.2601
           4    0.3855   -0.0060   -0.0439   -0.0454   -0.1282    0.1320   -0.0044   -0.0051
           5    0.0111    0.3363    0.0483   -0.0241    0.0014   -0.0012    0.6359    0.0012
           6   -0.0010    0.0016   -0.0142   -0.0282    0.0130    0.0002    0.0027   -0.0142
           7   -0.2502    0.2897    0.0863   -0.0264    0.0090   -0.4331   -0.1011    0.0007
           8   -0.3176   -0.0909    0.0293    0.0215    0.0642   -0.0966   -0.3092    0.0010
           9    0.0004   -0.0020   -0.0011    0.0028    0.0000    0.0026   -0.0007   -0.0008
          10   -0.2634   -0.2872   -0.0631    0.0528    0.0191   -0.4272    0.1065    0.0008
          11    0.3087   -0.1010   -0.0197   -0.0289   -0.0712    0.0949   -0.3127   -0.0020
          12    0.0031    0.0012    0.0022   -0.0007   -0.0005    0.0034   -0.0020   -0.0007
          13   -0.1625   -0.2520   -0.0213    0.0373    0.0684    0.4888   -0.1501   -0.0006
          14    0.2641   -0.1911   -0.0901    0.0209   -0.0488   -0.1597    0.2408   -0.0004
          15    0.0022    0.0010    0.0002    0.0002   -0.0008   -0.0042    0.0022   -0.0001
          16   -0.1477    0.2654    0.0584   -0.0029    0.0675    0.4847    0.1488   -0.0004
          17   -0.2701   -0.1792   -0.0538    0.0569    0.0614    0.1657    0.2428    0.0004
          18   -0.0002   -0.0027   -0.0005    0.0010   -0.0004   -0.0028   -0.0001   -0.0001
          19    0.2506   -0.0069   -0.0189   -0.0181   -0.0545   -0.2366    0.0002   -0.0003
          20    0.0095    0.4944    0.1633   -0.0873   -0.0123   -0.0052   -0.4277   -0.0001
          21   -0.0017    0.0021    0.0009   -0.0001    0.0004    0.0017   -0.0018    0.0001
          22    0.2081   -0.1124   -0.0408    0.0064   -0.0462    0.0013    0.0023    0.0006
          23    0.0762   -0.1243   -0.0265    0.0126   -0.0108    0.0191   -0.0363   -0.0013
          24   -0.0008   -0.0003    0.0030   -0.0036    0.0017    0.0002    0.0003    0.0009
          25    0.2124    0.1054    0.0209   -0.0274   -0.0522    0.0001   -0.0029    0.0021
          26   -0.0804   -0.1207   -0.0247    0.0145    0.0132   -0.0171   -0.0364    0.0035
          27   -0.0014   -0.0006   -0.0033    0.0029    0.0016    0.0000   -0.0006    0.0006
          28    0.2140    0.0718   -0.0019   -0.0198   -0.0342   -0.0323    0.0329    0.0009
          29   -0.0874   -0.1147   -0.0193    0.0200    0.0190    0.0394   -0.0052    0.0016
          30   -0.0018   -0.0012   -0.0001   -0.0007    0.0004    0.0005   -0.0002    0.0002
          31    0.2094   -0.0789   -0.0255   -0.0079   -0.0342   -0.0320   -0.0340    0.0006
          32    0.0825   -0.1186   -0.0326    0.0069   -0.0169   -0.0382   -0.0056   -0.0013
          33   -0.0011    0.0003   -0.0006   -0.0002    0.0002    0.0001    0.0002    0.0002
          34    0.0560   -0.0006   -0.0034   -0.0036   -0.0092   -0.0354   -0.0003    0.0014
          35   -0.0061   -0.2589   -0.0558    0.0291    0.0026    0.0013    0.0156    0.0000
          36   -0.0003   -0.0011   -0.0004   -0.0003    0.0001    0.0004    0.0001    0.0001
          37    0.1004   -0.0233   -0.1973    0.1409    0.5284   -0.0246   -0.1127   -0.1356
          38   -0.0282    0.0310    0.1048    0.2157   -0.2905    0.0156    0.0419   -0.2934
          39    0.0338    0.0832    0.0060    0.6564   -0.0653   -0.0004   -0.0316    0.0886
          40    0.1037    0.0071    0.2424   -0.1708    0.4971   -0.0257    0.0952   -0.1609
          41    0.0198    0.0721   -0.2713   -0.2383    0.3057   -0.0163    0.0231    0.3147
          42    0.0393   -0.1144    0.5537    0.1870   -0.0380   -0.0031    0.0408    0.1900
          43    0.1095   -0.0067    0.2735    0.3616    0.3445   -0.0259    0.0112    0.3139
          44    0.0043    0.2209   -0.5439    0.4135    0.0528   -0.0031   -0.0311   -0.0867
          45   -0.0384    0.0296   -0.1840   -0.1149   -0.1440    0.0156   -0.0086    0.7433


   Root No.      33        34        35        36        37        38        39

                33 A      34 A      35 A      36 A      37 A      38 A      39 A   

                2622.3    2700.7    2717.7    2726.0    2731.6    2739.3    2749.6
  
           1   -0.0001   -0.1248    0.0091    0.0003   -0.0050   -0.0005    0.0164
           2   -0.2625   -0.0025    0.0003    0.0031   -0.0006   -0.0104    0.0001
           3   -0.0168    0.0111   -0.0010    0.0000    0.0015   -0.0001   -0.0017
           4    0.0011   -0.0423    0.0038    0.0001   -0.0040   -0.0003    0.0167
           5   -0.0187   -0.0000    0.0001    0.0209   -0.0005   -0.0259   -0.0006
           6   -0.0009    0.0002   -0.0001    0.0001    0.0001   -0.0001   -0.0002
           7   -0.0004    0.0128    0.0245   -0.0455   -0.0517    0.0809    0.0626
           8    0.0096   -0.0218   -0.0220    0.0433    0.0893   -0.1424   -0.1329
           9   -0.0002    0.0000   -0.0003    0.0005    0.0008   -0.0012   -0.0010
          10   -0.0001    0.0128    0.0247    0.0468   -0.0543   -0.0801    0.0580
          11    0.0103    0.0227    0.0227    0.0464   -0.0956   -0.1438    0.1266
          12    0.0002    0.0002   -0.0001   -0.0001    0.0000   -0.0000    0.0001
          13    0.0017    0.0030    0.0461   -0.0873   -0.0678   -0.0215   -0.0457
          14   -0.0001   -0.0018    0.1071   -0.1361   -0.0730   -0.0598   -0.0956
          15    0.0000   -0.0001    0.0002   -0.0000    0.0001   -0.0001   -0.0001
          16   -0.0013    0.0032    0.0461    0.0885   -0.0654    0.0271   -0.0458
          17   -0.0003    0.0017   -0.1062   -0.1362    0.0675   -0.0677    0.0941
          18   -0.0000   -0.0001   -0.0007   -0.0012    0.0007   -0.0005    0.0007
          19    0.0000   -0.0199   -0.1836    0.0006   -0.1506    0.0049   -0.0858
          20    0.0023   -0.0001   -0.0004   -0.0293   -0.0008   -0.0071   -0.0002
          21    0.0000    0.0001    0.0013   -0.0001    0.0010   -0.0001    0.0006
          22    0.0149   -0.0512   -0.0547    0.1216    0.2017   -0.3151   -0.2652
          23   -0.0222    0.0849    0.0989   -0.2144   -0.3510    0.5506    0.4625
          24    0.0003    0.0006    0.0008   -0.0017   -0.0028    0.0044    0.0037
          25   -0.0154   -0.0524   -0.0555   -0.1266    0.2127    0.3132   -0.2482
          26   -0.0232   -0.0878   -0.1014   -0.2257    0.3744    0.5535   -0.4377
          27   -0.0004   -0.0001   -0.0001   -0.0001    0.0002    0.0003   -0.0002
          28   -0.0021   -0.0005   -0.2260    0.3180    0.1813    0.1175    0.1918
          29   -0.0029   -0.0010   -0.3869    0.5495    0.3135    0.2023    0.3293
          30    0.0001    0.0000   -0.0002    0.0002    0.0001    0.0001    0.0001
          31    0.0018   -0.0006   -0.2258   -0.3214    0.1712   -0.1360    0.1908
          32   -0.0021    0.0012    0.3834    0.5510   -0.2937    0.2323   -0.3250
          33   -0.0000    0.0000    0.0031    0.0045   -0.0024    0.0019   -0.0027
          34   -0.0003    0.0688    0.7112   -0.0023    0.5808   -0.0180    0.2942
          35   -0.0000    0.0001    0.0016   -0.0017    0.0013    0.0007    0.0007
          36    0.0000   -0.0004   -0.0049    0.0000   -0.0040    0.0001   -0.0020
          37    0.2813    0.2139   -0.0181   -0.0042    0.0122    0.0135   -0.0309
          38    0.5752    0.4995   -0.0407   -0.0067    0.0269    0.0242   -0.0673
          39   -0.2695   -0.2164    0.0174    0.0029   -0.0113   -0.0107    0.0291
          40   -0.2664    0.2091   -0.0174    0.0027    0.0108   -0.0104   -0.0305
          41    0.4779   -0.4341    0.0351   -0.0036   -0.0220    0.0165    0.0593
          42    0.3786   -0.3193    0.0254   -0.0026   -0.0155    0.0122    0.0434
          43   -0.0163    0.1833   -0.0146   -0.0000    0.0075   -0.0006   -0.0254
          44   -0.0352   -0.0561    0.0045   -0.0001   -0.0025    0.0003    0.0076
          45   -0.0433    0.4928   -0.0386   -0.0004    0.0206   -0.0011   -0.0655


          DESCRIPTION OF VIBRATIONS


 VIBRATION          1    1A           ATOM PAIR      ENERGY CONTRIBUTION    RADIAL
 FREQUENCY            29.22         N  1 -- H 15         +33.6% (999.0%)      0.0%
 TRANSITION DIPOLE   0.0285         N  1 -- H 14         +32.6% (999.0%)      0.1%
 TRAVEL (Ang.)       0.0000         N  1 -- H 13         +32.3% (999.0%)      0.0%
 REDUCED MASS        0.3167         C  2 -- C  3          +0.2% (179.8%)      0.4%
 EFFECTIVE MASS     39.3138
 FORCE CONSTANT      0.0002

 VIBRATION          2    2A           ATOM PAIR      ENERGY CONTRIBUTION    RADIAL
 FREQUENCY           189.18         N  1 -- C  2         +20.9% (238.7%)      0.0%
 TRANSITION DIPOLE   0.6165         N  1 -- H 15         +13.5% (192.1%)     96.3%
 TRAVEL (Ang.)       0.4976         N  1 -- H 13         +13.0% (188.2%)     21.2%
 REDUCED MASS        1.4395         N  1 -- H 14         +13.0% (188.1%)     38.6%
 EFFECTIVE MASS     61.5065
 FORCE CONSTANT      0.0304

 VIBRATION          3    3A           ATOM PAIR      ENERGY CONTRIBUTION    RADIAL
 FREQUENCY           346.13         C  3 -- C  5         +24.1% (113.1%)      0.0%
 TRANSITION DIPOLE   0.0185         C  4 -- C  6         +24.0% (112.9%)      0.0%
 TRAVEL (Ang.)       0.4092         C  5 -- C  7          +8.6% ( 67.5%)      0.0%
 REDUCED MASS        1.1633         C  6 -- C  7          +8.5% ( 67.1%)      0.0%
 EFFECTIVE MASS     18.7205
 FORCE CONSTANT      0.0821

 VIBRATION          4    4A           ATOM PAIR      ENERGY CONTRIBUTION    RADIAL
 FREQUENCY           361.04         N  1 -- C  2         +20.7% (207.6%)      0.0%
 TRANSITION DIPOLE   0.4935         C  2 -- C  3          +9.0% (136.6%)      0.3%
 TRAVEL (Ang.)       0.3374         C  2 -- C  4          +8.9% (136.2%)      0.3%
 REDUCED MASS        1.6411         N  1 -- H 13          +8.8% (135.8%)     88.5%
 EFFECTIVE MASS     32.4220
 FORCE CONSTANT      0.1260

 VIBRATION          5    5A           ATOM PAIR      ENERGY CONTRIBUTION    RADIAL
 FREQUENCY           438.26         N  1 -- C  2         +15.6% ( 83.3%)      0.0%
 TRANSITION DIPOLE   0.5720         C  6 -- C  7         +14.4% ( 79.9%)      0.0%
 TRAVEL (Ang.)       0.3131         C  5 -- C  7         +14.3% ( 79.7%)      0.0%
 REDUCED MASS        1.5698         C  2 -- C  3         +12.8% ( 75.3%)      0.0%
 EFFECTIVE MASS     14.4649         C  2 -- C  4         +12.7% ( 75.2%)      0.0%
 FORCE CONSTANT      0.1776

 VIBRATION          6    6A           ATOM PAIR      ENERGY CONTRIBUTION    RADIAL
 FREQUENCY           517.42         C  5 -- C  7         +10.2% (105.1%)      0.2%
 TRANSITION DIPOLE   0.5312         C  6 -- C  7         +10.1% (105.0%)      0.2%
 TRAVEL (Ang.)       0.2472         N  1 -- C  2         +10.0% (104.6%)     98.9%
 REDUCED MASS        2.1331         C  7 -- H 12          +8.1% ( 93.9%)    100.0%
 EFFECTIVE MASS     20.0798
 FORCE CONSTANT      0.3365

 VIBRATION          7    7A           ATOM PAIR      ENERGY CONTRIBUTION    RADIAL
 FREQUENCY           601.73         C  2 -- C  3         +20.1% ( 68.1%)      0.0%
 TRANSITION DIPOLE   0.6372         C  2 -- C  4         +20.1% ( 68.0%)      0.0%
 TRAVEL (Ang.)       0.3048         N  1 -- C  2         +12.5% ( 53.7%)      0.0%
 REDUCED MASS        1.2061         C  3 -- C  5          +6.9% ( 39.8%)      0.0%
 EFFECTIVE MASS      9.8018
 FORCE CONSTANT      0.2573

 VIBRATION          8    8A           ATOM PAIR      ENERGY CONTRIBUTION    RADIAL
 FREQUENCY           603.04         C  4 -- C  6         +13.2% (105.7%)      0.1%
 TRANSITION DIPOLE   0.0646         C  3 -- C  5         +13.2% (105.7%)      0.1%
 TRAVEL (Ang.)       0.2207         C  5 -- C  7         +10.6% ( 94.7%)      1.9%
 REDUCED MASS        2.2952         C  6 -- C  7         +10.6% ( 94.6%)      1.9%
 EFFECTIVE MASS     17.9458
 FORCE CONSTANT      0.4918

 VIBRATION          9    9A           ATOM PAIR      ENERGY CONTRIBUTION    RADIAL
 FREQUENCY           807.35         C  7 -- H 12         +24.9% ( 60.6%)      0.1%
 TRANSITION DIPOLE   0.8245         C  6 -- H 11         +21.2% ( 55.9%)      0.1%
 TRAVEL (Ang.)       0.6033         C  5 -- H 10         +21.0% ( 55.7%)      0.1%
 REDUCED MASS        0.2295         C  4 -- H  9          +7.5% ( 33.2%)      0.0%
 EFFECTIVE MASS      2.3321
 FORCE CONSTANT      0.0881

 VIBRATION         10   10A           ATOM PAIR      ENERGY CONTRIBUTION    RADIAL
 FREQUENCY           830.79         C  6 -- C  7         +15.0% ( 82.2%)      0.2%
 TRANSITION DIPOLE   0.2526         C  5 -- C  7         +15.0% ( 82.0%)      0.1%
 TRAVEL (Ang.)       0.1954         C  4 -- C  6          +8.7% ( 62.3%)      0.4%
 REDUCED MASS        2.1251         C  3 -- C  5          +8.6% ( 62.1%)      0.5%
 EFFECTIVE MASS     14.6488
 FORCE CONSTANT      0.8642

 VIBRATION         11   11A           ATOM PAIR      ENERGY CONTRIBUTION    RADIAL
 FREQUENCY           888.26         C  3 -- H  8         +26.1% ( 56.8%)      0.0%
 TRANSITION DIPOLE   0.0027         C  4 -- H  9         +26.0% ( 56.7%)      0.0%
 TRAVEL (Ang.)       0.4937         C  5 -- H 10         +18.3% ( 47.6%)      0.0%
 REDUCED MASS        0.3115         C  6 -- H 11         +18.1% ( 47.3%)      0.0%
 EFFECTIVE MASS      2.3503
 FORCE CONSTANT      0.1448

 VIBRATION         12   12A           ATOM PAIR      ENERGY CONTRIBUTION    RADIAL
 FREQUENCY           963.77         C  7 -- H 12         +24.7% ( 55.1%)      0.0%
 TRANSITION DIPOLE   0.0871         C  4 -- H  9         +23.2% ( 53.4%)      0.0%
 TRAVEL (Ang.)       0.3765         C  3 -- H  8         +23.1% ( 53.3%)      0.0%
 REDUCED MASS        0.4935         C  2 -- C  4          +4.9% ( 24.4%)      0.0%
 EFFECTIVE MASS      3.4842
 FORCE CONSTANT      0.2701

 VIBRATION         13   13A           ATOM PAIR      ENERGY CONTRIBUTION    RADIAL
 FREQUENCY          1017.02         C  6 -- H 11         +22.4% ( 50.8%)      0.0%
 TRANSITION DIPOLE   0.0021         C  5 -- H 10         +22.1% ( 50.5%)      0.0%
 TRAVEL (Ang.)       0.3463         C  3 -- H  8         +14.4% ( 40.7%)      0.0%
 REDUCED MASS        0.5528         C  4 -- H  9         +14.2% ( 40.5%)      0.0%
 EFFECTIVE MASS      3.9642
 FORCE CONSTANT      0.3369

 VIBRATION         14   14A           ATOM PAIR      ENERGY CONTRIBUTION    RADIAL
 FREQUENCY          1017.99         C  2 -- C  4         +13.2% ( 65.6%)     11.4%
 TRANSITION DIPOLE   0.4039         C  2 -- C  3         +13.2% ( 65.5%)     11.4%
 TRAVEL (Ang.)       0.1699         C  4 -- C  6         +12.6% ( 64.1%)      3.6%
 REDUCED MASS        2.2946         C  3 -- C  5         +12.6% ( 63.9%)      3.6%
 EFFECTIVE MASS     12.8463         N  1 -- C  2         +11.3% ( 60.7%)    100.0%
 FORCE CONSTANT      1.4010

 VIBRATION         15   15A           ATOM PAIR      ENERGY CONTRIBUTION    RADIAL
 FREQUENCY          1051.17         C  7 -- H 12         +26.2% ( 56.0%)      0.0%
 TRANSITION DIPOLE   0.0415         C  5 -- H 10         +16.7% ( 44.7%)      0.0%
 TRAVEL (Ang.)       0.2826         C  6 -- H 11         +16.5% ( 44.4%)      0.0%
 REDUCED MASS        0.8034         C  5 -- C  7         +11.3% ( 36.7%)      0.0%
 EFFECTIVE MASS      4.9600         C  6 -- C  7         +11.2% ( 36.6%)      0.0%
 FORCE CONSTANT      0.5230

 VIBRATION         16   16A           ATOM PAIR      ENERGY CONTRIBUTION    RADIAL
 FREQUENCY          1124.03         N  1 -- H 13         +20.8% ( 69.2%)     13.1%
 TRANSITION DIPOLE   0.0650         N  1 -- H 14         +18.0% ( 64.4%)     10.5%
 TRAVEL (Ang.)       0.3681         C  2 -- C  4          +8.5% ( 44.4%)     86.9%
 REDUCED MASS        0.4428         C  2 -- C  3          +8.5% ( 44.2%)     86.4%
 EFFECTIVE MASS      5.4560
 FORCE CONSTANT      0.3296

 VIBRATION         17   17A           ATOM PAIR      ENERGY CONTRIBUTION    RADIAL
 FREQUENCY          1163.34         C  6 -- C  7         +15.7% ( 53.2%)     87.4%
 TRANSITION DIPOLE   0.1578         C  5 -- C  7         +15.3% ( 52.5%)     85.9%
 TRAVEL (Ang.)       0.3329         C  5 -- H 10         +12.6% ( 47.7%)     27.3%
 REDUCED MASS        0.5230         C  6 -- H 11         +12.2% ( 46.9%)     30.3%
 EFFECTIVE MASS      5.9474
 FORCE CONSTANT      0.4170

 VIBRATION         18   18A           ATOM PAIR      ENERGY CONTRIBUTION    RADIAL
 FREQUENCY          1180.20         N  1 -- H 15         +40.9% ( 77.9%)     15.2%
 TRANSITION DIPOLE   0.5435         N  1 -- H 14         +22.9% ( 58.3%)      7.9%
 TRAVEL (Ang.)       0.2792         N  1 -- H 13         +18.4% ( 52.2%)      4.1%
 REDUCED MASS        0.7331         N  1 -- C  2         +10.3% ( 39.1%)      0.0%
 EFFECTIVE MASS      3.7258
 FORCE CONSTANT      0.6016

 VIBRATION         19   19A           ATOM PAIR      ENERGY CONTRIBUTION    RADIAL
 FREQUENCY          1196.77         C  3 -- H  8         +18.6% ( 51.9%)      2.2%
 TRANSITION DIPOLE   0.5504         C  4 -- H  9         +18.5% ( 51.7%)      2.2%
 TRAVEL (Ang.)       0.5319         N  1 -- H 13          +9.0% ( 36.0%)     14.9%
 REDUCED MASS        0.1992         C  7 -- H 12          +8.1% ( 34.2%)      0.0%
 EFFECTIVE MASS      2.9020
 FORCE CONSTANT      0.1681

 VIBRATION         20   20A           ATOM PAIR      ENERGY CONTRIBUTION    RADIAL
 FREQUENCY          1216.60         C  7 -- H 12         +39.1% ( 82.1%)      0.0%
 TRANSITION DIPOLE   0.1093         C  4 -- C  6          +9.7% ( 40.8%)     99.9%
 TRAVEL (Ang.)       0.3172         C  3 -- C  5          +9.5% ( 40.5%)     99.8%
 REDUCED MASS        0.5507         C  6 -- H 11          +6.2% ( 32.7%)      2.0%
 EFFECTIVE MASS      3.9408
 FORCE CONSTANT      0.4803

 VIBRATION         21   21A           ATOM PAIR      ENERGY CONTRIBUTION    RADIAL
 FREQUENCY          1258.92         C  3 -- H  8         +27.1% ( 51.6%)      0.6%
 TRANSITION DIPOLE   0.0153         C  4 -- H  9         +26.8% ( 51.3%)      0.5%
 TRAVEL (Ang.)       0.4678         C  5 -- H 10         +20.7% ( 45.1%)      1.2%
 REDUCED MASS        0.2448         C  6 -- H 11         +20.4% ( 44.8%)      1.2%
 EFFECTIVE MASS      1.3033
 FORCE CONSTANT      0.2285

 VIBRATION         22   22A           ATOM PAIR      ENERGY CONTRIBUTION    RADIAL
 FREQUENCY          1304.17         N  1 -- C  2         +19.8% ( 67.4%)    100.0%
 TRANSITION DIPOLE   0.1024         C  2 -- C  3         +17.1% ( 62.6%)     60.8%
 TRAVEL (Ang.)       0.1453         C  2 -- C  4         +17.0% ( 62.4%)     59.4%
 REDUCED MASS        2.4496         C  5 -- C  7          +6.6% ( 39.1%)    100.0%
 EFFECTIVE MASS     11.4201
 FORCE CONSTANT      2.4548

 VIBRATION         23   23A           ATOM PAIR      ENERGY CONTRIBUTION    RADIAL
 FREQUENCY          1328.09         C  5 -- H 10         +13.8% ( 48.1%)      1.4%
 TRANSITION DIPOLE   0.2009         C  6 -- H 11         +13.5% ( 47.4%)      0.9%
 TRAVEL (Ang.)       0.2757         C  3 -- C  5         +10.0% ( 40.8%)     93.1%
 REDUCED MASS        0.6678         C  3 -- H  8          +9.6% ( 40.1%)      0.3%
 EFFECTIVE MASS      4.8685
 FORCE CONSTANT      0.6940

 VIBRATION         24   24A           ATOM PAIR      ENERGY CONTRIBUTION    RADIAL
 FREQUENCY          1374.47         C  3 -- C  5         +10.8% ( 43.2%)     87.3%
 TRANSITION DIPOLE   0.3723         C  4 -- C  6         +10.6% ( 42.8%)     86.4%
 TRAVEL (Ang.)       0.2450         C  6 -- C  7          +9.8% ( 41.2%)     89.0%
 REDUCED MASS        0.8171         C  5 -- C  7          +9.7% ( 40.9%)     88.6%
 EFFECTIVE MASS      5.4590
 FORCE CONSTANT      0.9094

 VIBRATION         25   25A           ATOM PAIR      ENERGY CONTRIBUTION    RADIAL
 FREQUENCY          1527.09         C  2 -- C  3         +13.7% ( 50.5%)     68.6%
 TRANSITION DIPOLE   1.2422         C  2 -- C  4         +13.6% ( 50.2%)     64.5%
 TRAVEL (Ang.)       0.1920         C  4 -- C  6          +9.3% ( 41.6%)      3.5%
 REDUCED MASS        1.1974         C  3 -- C  5          +9.3% ( 41.5%)      2.1%
 EFFECTIVE MASS      8.9981
 FORCE CONSTANT      1.6452

 VIBRATION         26   26A           ATOM PAIR      ENERGY CONTRIBUTION    RADIAL
 FREQUENCY          1543.02         C  5 -- C  7         +14.1% ( 50.9%)     42.0%
 TRANSITION DIPOLE   0.2705         C  6 -- C  7         +14.0% ( 50.7%)     38.4%
 TRAVEL (Ang.)       0.1807         C  7 -- H 12         +12.7% ( 48.3%)      0.0%
 REDUCED MASS        1.3382         C  4 -- C  6          +9.5% ( 41.8%)     97.8%
 EFFECTIVE MASS      9.2343
 FORCE CONSTANT      1.8773

 VIBRATION         27   27A           ATOM PAIR      ENERGY CONTRIBUTION    RADIAL
 FREQUENCY          1568.53         N  1 -- H 14         +39.7% ( 54.9%)      0.9%
 TRANSITION DIPOLE   0.5184         N  1 -- H 15         +36.7% ( 52.8%)      1.7%
 TRAVEL (Ang.)       0.3302         N  1 -- H 13          +4.8% ( 19.2%)     59.1%
 REDUCED MASS        0.3943         C  5 -- C  7          +3.9% ( 17.2%)     74.3%
 EFFECTIVE MASS      1.9336
 FORCE CONSTANT      0.5715

 VIBRATION         28   28A           ATOM PAIR      ENERGY CONTRIBUTION    RADIAL
 FREQUENCY          1570.49         N  1 -- H 13         +48.4% ( 58.5%)      0.1%
 TRANSITION DIPOLE   0.5186         N  1 -- H 15         +31.2% ( 46.9%)      5.0%
 TRAVEL (Ang.)       0.3315         N  1 -- H 14         +12.2% ( 29.4%)      9.2%
 REDUCED MASS        0.3907         N  1 -- C  2          +2.0% ( 12.0%)      2.9%
 EFFECTIVE MASS      1.5595
 FORCE CONSTANT      0.5677

 VIBRATION         29   29A           ATOM PAIR      ENERGY CONTRIBUTION    RADIAL
 FREQUENCY          1609.84         N  1 -- H 13         +36.1% ( 57.2%)      1.5%
 TRANSITION DIPOLE   0.7418         N  1 -- H 14         +33.7% ( 55.3%)      1.2%
 TRAVEL (Ang.)       0.3210         N  1 -- H 15         +17.6% ( 39.9%)      0.2%
 REDUCED MASS        0.4064         N  1 -- C  2          +3.5% ( 17.8%)     93.9%
 EFFECTIVE MASS      2.1710
 FORCE CONSTANT      0.6205

 VIBRATION         30   30A           ATOM PAIR      ENERGY CONTRIBUTION    RADIAL
 FREQUENCY          1659.85         C  3 -- C  5         +18.6% ( 60.8%)     99.6%
 TRANSITION DIPOLE   0.3846         C  4 -- C  6         +18.2% ( 60.2%)     99.5%
 TRAVEL (Ang.)       0.1246         C  6 -- C  7         +10.9% ( 46.6%)     46.5%
 REDUCED MASS        2.6150         C  5 -- C  7         +10.9% ( 46.6%)     44.7%
 EFFECTIVE MASS     11.9144
 FORCE CONSTANT      4.2448

 VIBRATION         31   31A           ATOM PAIR      ENERGY CONTRIBUTION    RADIAL
 FREQUENCY          1722.30         C  2 -- C  4         +20.6% ( 62.6%)     85.8%
 TRANSITION DIPOLE   0.1852         C  2 -- C  3         +20.4% ( 62.3%)     85.0%
 TRAVEL (Ang.)       0.1182         N  1 -- C  2         +12.9% ( 49.5%)      0.0%
 REDUCED MASS        2.8005         C  6 -- C  7          +9.8% ( 43.3%)     91.3%
 EFFECTIVE MASS     11.5945
 FORCE CONSTANT      4.8944

 VIBRATION         32   32A           ATOM PAIR      ENERGY CONTRIBUTION    RADIAL
 FREQUENCY          2615.95         N  1 -- H 15         +69.2% ( 85.4%)     99.8%
 TRANSITION DIPOLE   1.2791         N  1 -- H 14         +17.6% ( 43.0%)     88.8%
 TRAVEL (Ang.)       0.2184         N  1 -- H 13         +12.4% ( 36.2%)     83.3%
 REDUCED MASS        0.5405         N  1 -- C  2          +0.8% (  8.9%)      0.0%
 EFFECTIVE MASS      1.4420
 FORCE CONSTANT      2.1792

 VIBRATION         33   33A           ATOM PAIR      ENERGY CONTRIBUTION    RADIAL
 FREQUENCY          2622.29         N  1 -- H 13         +51.2% ( 73.5%)     98.5%
 TRANSITION DIPOLE   1.0886         N  1 -- H 14         +46.9% ( 70.4%)     97.8%
 TRAVEL (Ang.)       0.2269         N  1 -- H 15          +0.9% ( 10.0%)      5.6%
 REDUCED MASS        0.4994         N  1 -- C  2          +0.8% (  9.4%)      0.0%
 EFFECTIVE MASS      1.4578
 FORCE CONSTANT      2.0232

 VIBRATION         34   34A           ATOM PAIR      ENERGY CONTRIBUTION    RADIAL
 FREQUENCY          2700.68         N  1 -- H 13         +34.8% ( 57.0%)     96.6%
 TRANSITION DIPOLE   1.1190         N  1 -- H 14         +33.9% ( 56.3%)     96.5%
 TRAVEL (Ang.)       0.2825         N  1 -- H 15         +28.0% ( 51.1%)     95.5%
 REDUCED MASS        0.3130         C  4 -- H  9          +1.2% ( 10.7%)     99.9%
 EFFECTIVE MASS      1.1271
 FORCE CONSTANT      1.3449

 VIBRATION         35   35A           ATOM PAIR      ENERGY CONTRIBUTION    RADIAL
 FREQUENCY          2717.67         C  7 -- H 12         +52.9% ( 73.6%)    100.0%
 TRANSITION DIPOLE   0.0901         C  5 -- H 10         +21.0% ( 46.5%)     99.9%
 TRAVEL (Ang.)       0.2638         C  6 -- H 11         +20.8% ( 46.1%)     99.9%
 REDUCED MASS        0.3565         C  4 -- H  9          +1.4% ( 12.1%)     99.6%
 EFFECTIVE MASS      1.3782
 FORCE CONSTANT      1.5513

 VIBRATION         36   36A           ATOM PAIR      ENERGY CONTRIBUTION    RADIAL
 FREQUENCY          2726.04         C  6 -- H 11         +42.5% ( 65.9%)    100.0%
 TRANSITION DIPOLE   0.7454         C  5 -- H 10         +42.1% ( 65.6%)    100.0%
 TRAVEL (Ang.)       0.2636         C  4 -- H  9          +7.0% ( 26.8%)     99.6%
 REDUCED MASS        0.3559         C  3 -- H  8          +6.4% ( 25.5%)     99.6%
 EFFECTIVE MASS      1.3624
 FORCE CONSTANT      1.5583

 VIBRATION         37   37A           ATOM PAIR      ENERGY CONTRIBUTION    RADIAL
 FREQUENCY          2731.60         C  7 -- H 12         +35.1% ( 59.9%)    100.0%
 TRANSITION DIPOLE   1.5059         C  4 -- H  9         +19.4% ( 44.5%)    100.0%
 TRAVEL (Ang.)       0.3360         C  3 -- H  8         +17.2% ( 41.9%)    100.0%
 REDUCED MASS        0.2187         C  5 -- H 10         +13.8% ( 37.5%)     99.8%
 EFFECTIVE MASS      1.3873         C  6 -- H 11         +12.1% ( 35.2%)     99.7%
 FORCE CONSTANT      0.9614

 VIBRATION         38   38A           ATOM PAIR      ENERGY CONTRIBUTION    RADIAL
 FREQUENCY          2739.34         C  4 -- H  9         +42.2% ( 65.7%)    100.0%
 TRANSITION DIPOLE   1.6544         C  3 -- H  8         +42.0% ( 65.5%)    100.0%
 TRAVEL (Ang.)       0.2635         C  6 -- H 11          +7.6% ( 27.8%)     99.9%
 REDUCED MASS        0.3544         C  5 -- H 10          +5.7% ( 24.1%)     99.9%
 EFFECTIVE MASS      1.3855
 FORCE CONSTANT      1.5671

 VIBRATION         39   39A           ATOM PAIR      ENERGY CONTRIBUTION    RADIAL
 FREQUENCY          2749.57         C  3 -- H  8         +29.9% ( 55.1%)    100.0%
 TRANSITION DIPOLE   0.1130         C  4 -- H  9         +26.6% ( 52.0%)    100.0%
 TRAVEL (Ang.)       0.3425         C  5 -- H 10         +15.2% ( 39.2%)    100.0%
 REDUCED MASS        0.2090         C  6 -- H 11         +14.8% ( 38.8%)    100.0%
 EFFECTIVE MASS      1.4610
 FORCE CONSTANT      0.9310

      SYMMETRY NUMBER FOR POINT-GROUP C1  =  1


          SYSTEM IS A GROUND STATE



 anilinium(+), PM7


          MOLECULE IS NOT LINEAR

          THERE ARE 39 GENUINE VIBRATIONS IN THIS SYSTEM
          THIS THERMODYNAMICS CALCULATION IS LIMITED TO
          MOLECULES WHICH HAVE NO INTERNAL ROTATIONS




                    CALCULATED THERMODYNAMIC PROPERTIES
                                          *
   TEMP. (K)   PARTITION FUNCTION   H.O.F.    ENTHALPY  HEAT CAPACITY ENTROPY
                                   KCAL/MOL   CAL/MOLE    CAL/K/MOL  CAL/K/MOL


 298.00  VIB.     0.2933D+02                  2179.7949    16.8884    14.0290
         ROT.     0.1809D+06                   888.2803     2.9808    27.0376
         INT.     0.5307D+07                  3068.0752    19.8692    41.0666
         TRA.     0.8830D+27                  1480.4672     4.9680    39.5356
         TOT.                      178.300    4548.5424    24.8372    80.6022

 200.00  VIB.     0.9292D+01                   885.1307     9.7355     8.8554
         ROT.     0.9948D+05                   596.1613     2.9808    25.8489
         INT.     0.9243D+06                  1481.2920    12.7163    34.7043
         TRA.     0.4855D+27                   993.6021     4.9680    37.5545
         TOT.                      176.226    2474.8941    17.6844    72.2588

 210.00  VIB.     0.1039D+02                   985.8138    10.4038     9.3465
         ROT.     0.1070D+06                   625.9693     2.9808    25.9943
         INT.     0.1112D+07                  1611.7832    13.3846    35.3409
         TRA.     0.5224D+27                  1043.2822     4.9680    37.7969
         TOT.                      176.406    2655.0654    18.3526    73.1377

 220.00  VIB.     0.1164D+02                  1093.2609    11.0883     9.8462
         ROT.     0.1148D+06                   655.7774     2.9808    26.1330
         INT.     0.1335D+07                  1749.0383    14.0691    35.9792
         TRA.     0.5601D+27                  1092.9623     4.9680    38.0280
         TOT.                      176.593    2842.0007    19.0371    74.0072

 230.00  VIB.     0.1305D+02                  1207.6319    11.7885    10.3545
         ROT.     0.1227D+06                   685.5855     2.9808    26.2655
         INT.     0.1600D+07                  1893.2174    14.7693    36.6200
         TRA.     0.5987D+27                  1142.6424     4.9680    38.2488
         TOT.                      176.787    3035.8598    19.7373    74.8689

 240.00  VIB.     0.1464D+02                  1329.0808    12.5037    10.8713
         ROT.     0.1308D+06                   715.3935     2.9808    26.3924
         INT.     0.1915D+07                  2044.4744    15.4845    37.2637
         TRA.     0.6382D+27                  1192.3226     4.9680    38.4603
         TOT.                      176.988    3236.7969    20.4525    75.7239

 250.00  VIB.     0.1646D+02                  1457.7534    13.2330    11.3965
         ROT.     0.1390D+06                   745.2016     2.9808    26.5140
         INT.     0.2288D+07                  2202.9550    16.2138    37.9105
         TRA.     0.6785D+27                  1242.0027     4.9680    38.6631
         TOT.                      177.196    3444.9577    21.1819    76.5736

 260.00  VIB.     0.1852D+02                  1593.7846    13.9752    11.9299
         ROT.     0.1474D+06                   775.0097     2.9808    26.6309
         INT.     0.2730D+07                  2368.7943    16.9561    38.5608
         TRA.     0.7196D+27                  1291.6828     4.9680    38.8579
         TOT.                      177.412    3660.4770    21.9241    77.4188

 270.00  VIB.     0.2086D+02                  1737.2969    14.7290    12.4714
         ROT.     0.1560D+06                   804.8177     2.9808    26.7434
         INT.     0.3255D+07                  2542.1146    17.7098    39.2149
         TRA.     0.7615D+27                  1341.3629     4.9680    39.0454
         TOT.                      177.635    3883.4775    22.6778    78.2603

 280.00  VIB.     0.2354D+02                  1888.3986    15.4929    13.0209
         ROT.     0.1648D+06                   834.6258     2.9808    26.8518
         INT.     0.3878D+07                  2723.0243    18.4737    39.8727
         TRA.     0.8042D+27                  1391.0430     4.9680    39.2261
         TOT.                      177.865    4114.0673    23.4417    79.0988

 290.00  VIB.     0.2659D+02                  2047.1830    16.2653    13.5780
         ROT.     0.1737D+06                   864.4339     2.9808    26.9564
         INT.     0.4618D+07                  2911.6168    19.2461    40.5344
         TRA.     0.8477D+27                  1440.7231     4.9680    39.4004
         TOT.                      178.103    4352.3399    24.2141    79.9349

 300.00  VIB.     0.3007D+02                  2213.7279    17.0447    14.1425
         ROT.     0.1827D+06                   894.2419     2.9808    27.0575
         INT.     0.5495D+07                  3107.9699    20.0255    41.2000
         TRA.     0.8919D+27                  1490.4032     4.9680    39.5689
         TOT.                      178.349    4598.3730    24.9935    80.7689

 310.00  VIB.     0.3405D+02                  2388.0953    17.8295    14.7142
         ROT.     0.1920D+06                   924.0500     2.9808    27.1552
         INT.     0.6537D+07                  3312.1453    20.8103    41.8694
         TRA.     0.9369D+27                  1540.0833     4.9680    39.7318
         TOT.                      178.603    4852.2286    25.7784    81.6012

 320.00  VIB.     0.3861D+02                  2570.3315    18.6182    15.2927
         ROT.     0.2013D+06                   953.8580     2.9808    27.2499
         INT.     0.7774D+07                  3524.1895    21.5990    42.5426
         TRA.     0.9826D+27                  1589.7634     4.9680    39.8895
         TOT.                      178.865    5113.9530    26.5670    82.4321

 330.00  VIB.     0.4384D+02                  2760.4674    19.4092    15.8777
         ROT.     0.2108D+06                   983.6661     2.9808    27.3416
         INT.     0.9243D+07                  3744.1335    22.3901    43.2193
         TRA.     0.1029D+28                  1639.4435     4.9680    40.0424
         TOT.                      179.135    5383.5771    27.3581    83.2617

 340.00  VIB.     0.4983D+02                  2958.5195    20.2012    16.4689
         ROT.     0.2205D+06                  1013.4742     2.9808    27.4306
         INT.     0.1099D+08                  3971.9937    23.1820    43.8995
         TRA.     0.1076D+28                  1689.1236     4.9680    40.1907
         TOT.                      179.412    5661.1173    28.1500    84.0902

 350.00  VIB.     0.5672D+02                  3164.4902    20.9928    17.0659
         ROT.     0.2303D+06                  1043.2822     2.9808    27.5170
         INT.     0.1306D+08                  4207.7724    23.9736    44.5829
         TRA.     0.1124D+28                  1738.8037     4.9680    40.3347
         TOT.                      179.698    5946.5761    28.9416    84.9176

 360.00  VIB.     0.6463D+02                  3378.3689    21.7826    17.6684
         ROT.     0.2402D+06                  1073.0903     2.9808    27.6010
         INT.     0.1553D+08                  4451.4592    24.7634    45.2693
         TRA.     0.1172D+28                  1788.4838     4.9680    40.4746
         TOT.                      179.991    6239.9431    29.7314    85.7440

 370.00  VIB.     0.7373D+02                  3600.1333    22.5697    18.2759
         ROT.     0.2503D+06                  1102.8984     2.9808    27.6826
         INT.     0.1846D+08                  4703.0317    25.5505    45.9586
         TRA.     0.1222D+28                  1838.1639     4.9680    40.6108
         TOT.                      180.292    6541.1956    30.5185    86.5693

 380.00  VIB.     0.8421D+02                  3829.7497    23.3529    18.8882
         ROT.     0.2605D+06                  1132.7064     2.9808    27.7621
         INT.     0.2194D+08                  4962.4561    26.3337    46.6504
         TRA.     0.1271D+28                  1887.8440     4.9680    40.7433
         TOT.                      180.601    6850.3002    31.3017    87.3936

 390.00  VIB.     0.9629D+02                  4067.1746    24.1312    19.5049
         ROT.     0.2709D+06                  1162.5145     2.9808    27.8396
         INT.     0.2608D+08                  5229.6891    27.1120    47.3445
         TRA.     0.1322D+28                  1937.5242     4.9680    40.8723
         TOT.                      180.918    7167.2133    32.0801    88.2168

 400.00  VIB.     0.1102D+03                  4312.3555    24.9039    20.1256
         ROT.     0.2814D+06                  1192.3226     2.9808    27.9150
         INT.     0.3101D+08                  5504.6780    27.8847    48.0406
         TRA.     0.1373D+28                  1987.2043     4.9680    40.9981
         TOT.                      181.243    7491.8823    32.8527    89.0387

   *: NOTE: HEATS OF FORMATION ARE RELATIVE TO THE
            ELEMENTS IN THEIR STANDARD STATE AT 298K
              (=  Standard Enthalpy of Formation).

            Hvib:  Zero-point energy is not included.
                   frequencies of less than zero cm-1 are not included.
            Hrot = (3/2)RT
            Htra = (3/2)RT + pV = (5/2)RT

            Heat capacity is Cp, not Cv

          For more information, see: HTTP://OpenMOPAC.net/Manual/thermochemistry.html


           FORCE CONSTANT IN CARTESIAN COORDINATES (Millidynes/A)

    ATOM   CHEMICAL       X               Y               Z
   NUMBER   SYMBOL  FORCE CONSTANT  FORCE CONSTANT  FORCE CONSTANT

      1       N        7.833163        7.328380        6.698302
      2       C        9.544625       12.468111        2.621624
      3       C       10.855363       10.213123        2.363579
      4       C       10.819696       10.230662        2.358802
      5       C       10.827069       10.008307        2.430476
      6       C       10.823466       10.026036        2.429647
      7       C        9.631513       11.096910        2.460518
      8       H        1.728031        3.386583        0.377118
      9       H        1.714165        3.398887        0.376610
     10       H        1.732151        3.346749        0.393727
     11       H        1.742639        3.337015        0.393564
     12       H        4.155460        0.907008        0.391911
     13       H        1.493174        3.072572        1.239357
     14       H        1.472417        2.561511        1.756271
     15       H        1.402950        0.852807        3.467647

 **********************
 *                    *
 * JOB ENDED NORMALLY *
 *                    *
 **********************



 TOTAL JOB TIME:             9.11 SECONDS

 == MOPAC DONE ==
