 *******************************************************************************
 **                                                                           **
 **                              MOPAC v22.1.0                                **
 **                                                                           **
 *******************************************************************************
 **          Digital Object Identifier (DOI): 10.5281/zenodo.6511958          **
 **    Visit the DOI location for information on how to cite this program.    **
 *******************************************************************************

                              PM7 CALCULATION RESULTS

 *******************************************************************************
 *  CALCULATION DONE:                                Fri Jan 26 11:24:02 2024  *
 *  PM7        - The PM7 Hamiltonian to be used
 *  SINGLET    - SPIN STATE DEFINED AS A SINGLET
 *
 *
 *
 *                 CHARGE ON SYSTEM = +1
 *
 *
 *
 *  PRECISE    - TIGHTER CRITERIA TO BE USED
 *  T=         - A TIME OF 172800.0 SECONDS REQUESTED
 *  DUMP=N     - RESTART FILE WRITTEN EVERY 7200.0 SECONDS REQUESTED
 *  LARGE      - EXPANDED OUTPUT TO BE PRINTED
 *******************************************************************************
 PRECISE LARGE CHARGE=1 SINGLET  PM7
 metylamonium(+), PM7

   ATOM   CHEMICAL          X               Y               Z
  NUMBER   SYMBOL      (ANGSTROMS)     (ANGSTROMS)     (ANGSTROMS)
 
     1       C         -6.36353000  *   1.13903000  *   0.00869000  *
     2       N         -4.91065000  *   1.06770000  *   0.10000000  *
     3       H         -6.65929000  *   1.74724000  *  -0.87320000  *
     4       H         -6.77922000  *   1.60808000  *   0.92646000  *
     5       H         -6.78798000  *   0.11753000  *  -0.09859000  *
     6       H         -4.52052000  *   2.03250000  *   0.20060000  *
     7       H         -4.52879000  *   0.62543000  *  -0.76704000  *
     8       H         -4.64201000  *   0.49406000  *   0.93183000  *
 


          CARTESIAN COORDINATES 

    NO.       ATOM           X           Y           Z

     1         C         -6.3635      1.1390      0.0087
     2         N         -4.9107      1.0677      0.1000
     3         H         -6.6593      1.7472     -0.8732
     4         H         -6.7792      1.6081      0.9265
     5         H         -6.7880      0.1175     -0.0986
     6         H         -4.5205      2.0325      0.2006
     7         H         -4.5288      0.6254     -0.7670
     8         H         -4.6420      0.4941      0.9318

 General Reference for PM7:
 "Optimization of Parameters for Semiempirical Methods VI: More Modifications to the 
 NDDO Approximations and Re-optimization of Parameters", J. J. P. Stewart, J. Mol. Mod., 1:32, 19 (2013)
 https://link.springer.com/article/10.1007/s00894-012-1667-x

           Empirical Formula: C H6 N  =     8 atoms



      MOLECULAR POINT GROUP   :   C3v 


 SINGLET STATE CALCULATION


      RHF CALCULATION, NO. OF DOUBLY OCCUPIED LEVELS = 7


          Geometry optimization using EF

          DIAGONAL MATRIX USED AS START HESSIAN

 CYCLE:     1 TIME:   0.008 TIME LEFT:  2.00D  GRAD.:    53.047 HEAT:  151.5605
 CYCLE:     2 TIME:   0.008 TIME LEFT:  2.00D  GRAD.:    40.106 HEAT:  150.8990
 CYCLE:     3 TIME:   0.008 TIME LEFT:  2.00D  GRAD.:    25.898 HEAT:  150.3546
 CYCLE:     4 TIME:   0.012 TIME LEFT:  2.00D  GRAD.:    37.474 HEAT:  150.3415
 CYCLE:     5 TIME:   0.008 TIME LEFT:  2.00D  GRAD.:    31.478 HEAT:  150.0481
 CYCLE:     6 TIME:   0.008 TIME LEFT:  2.00D  GRAD.:    16.240 HEAT:  149.7565
 CYCLE:     7 TIME:   0.004 TIME LEFT:  2.00D  GRAD.:     5.607 HEAT:  149.6547
 CYCLE:     8 TIME:   0.012 TIME LEFT:  2.00D  GRAD.:     3.369 HEAT:  149.6382
 CYCLE:     9 TIME:   0.008 TIME LEFT:  2.00D  GRAD.:     3.582 HEAT:  149.6334
 CYCLE:    10 TIME:   0.008 TIME LEFT:  2.00D  GRAD.:     1.308 HEAT:  149.6283
 CYCLE:    11 TIME:   0.008 TIME LEFT:  2.00D  GRAD.:     1.250 HEAT:  149.6283
 CYCLE:    12 TIME:   0.008 TIME LEFT:  2.00D  GRAD.:     0.214 HEAT:  149.6273
 CYCLE:    13 TIME:   0.004 TIME LEFT:  2.00D  GRAD.:     0.105 HEAT:  149.6273
 CYCLE:    14 TIME:   0.008 TIME LEFT:  2.00D  GRAD.:     0.052 HEAT:  149.6273
 CYCLE:    15 TIME:   0.008 TIME LEFT:  2.00D  GRAD.:     0.044 HEAT:  149.6272

     GRADIENT =  0.04376 IS LESS THAN CUTOFF =  0.05000



 -------------------------------------------------------------------------------
 PRECISE LARGE CHARGE=1 SINGLET  PM7
 metylamonium(+), PM7



     GEOMETRY OPTIMISED USING EIGENVECTOR FOLLOWING (EF).     
     SCF FIELD WAS ACHIEVED                                   


                              PM7 CALCULATION
                                                       MOPAC v22.1.0 Windows
                                                       Fri Jan 26 11:24:03 2024




          FINAL HEAT OF FORMATION =        149.62725 KCAL/MOL =     626.04041 KJ/MOL


          COSMO AREA              =         73.65 SQUARE ANGSTROMS
          COSMO VOLUME            =         55.19 CUBIC ANGSTROMS

          GRADIENT NORM           =          0.04376          =       0.01547 PER ATOM
          IONIZATION POTENTIAL    =         19.331047 EV
          HOMO LUMO ENERGIES (EV) =        -19.331 -4.483
          NO. OF FILLED LEVELS    =          7
          MOLECULAR WEIGHT        =         32.0651         POINT GROUP:  C3v 

          MOLECULAR DIMENSIONS (Angstroms)

            Atom       Atom       Distance
            H     8    H     3     3.03182
            H     7    H     4     2.84577
            H     5    H     6     2.75062


          SCF CALCULATIONS        =         17
 
          WALL-CLOCK TIME         =      0.164 SECONDS
          COMPUTATION TIME        =      0.344 SECONDS




   ATOM   CHEMICAL          X               Y               Z
  NUMBER   SYMBOL      (ANGSTROMS)     (ANGSTROMS)     (ANGSTROMS)
 
     1       C         -6.38763507  *   1.14025951  *   0.00724134  *
     2       N         -4.88572477  *   1.06645828  *   0.10152282  *
     3       H         -6.70662399  *   1.74366778  *  -0.86791260  *
     4       H         -6.82534778  *   1.60628741  *   0.91441432  *
     5       H         -6.83390078  *   0.12981818  *  -0.10038816  *
     6       H         -4.47798669  *   2.01374453  *   0.20198745  *
     7       H         -4.48630730  *   0.63049552  *  -0.74943337  *
     8       H         -4.59734855  *   0.50121114  *   0.92071640  *

                             CARTESIAN COORDINATES

   1    C       -6.387635065     1.140259513     0.007241337
   2    N       -4.885724766     1.066458282     0.101522824
   3    H       -6.706623991     1.743667785    -0.867912599
   4    H       -6.825347778     1.606287413     0.914414316
   5    H       -6.833900776     0.129818179    -0.100388162
   6    H       -4.477986690     2.013744535     0.201987447
   7    H       -4.486307296     0.630495521    -0.749433372
   8    H       -4.597348552     0.501211135     0.920716400


           Empirical Formula: C H6 N  =     8 atoms



      MOLECULAR POINT GROUP   :   C3v 


                  EIGENVALUES  
 -44.62089 -30.13906 -24.66366 -24.66307 -22.40128 -19.33134 -19.33105  -4.48345
  -2.18343  -1.34841  -1.34809  -0.42976  -0.42964   0.40033


              NET ATOMIC CHARGES AND DIPOLE CONTRIBUTIONS

  ATOM NO.   TYPE          CHARGE      No. of ELECS.   s-Pop       p-Pop       
    1          C          -0.346469        4.3465     1.08522     3.26125
    2          N          -0.173661        5.1737     1.46627     3.70739
    3          H           0.206735        0.7933     0.79327
    4          H           0.206741        0.7933     0.79326
    5          H           0.206718        0.7933     0.79328
    6          H           0.299977        0.7000     0.70002
    7          H           0.299976        0.7000     0.70002
    8          H           0.299983        0.7000     0.70002
 DIPOLE           X         Y         Z       TOTAL
 POINT-CHG.     1.808    -0.089     0.113     1.814
 HYBRID         0.524    -0.026     0.033     0.525
 SUM            2.332    -0.115     0.146     2.339


          ATOMIC ORBITAL ELECTRON POPULATIONS

     Atom    s        px        py        pz   
    1  C   1.08522   0.77827   1.24183   1.24114
    2  N   1.46627   1.19638   1.25554   1.25547
    3  H   0.79327
    4  H   0.79326
    5  H   0.79328
    6  H   0.70002
    7  H   0.70002
    8  H   0.70002
 *******************************************************************************
 **                                                                           **
 **                              MOPAC v22.1.0                                **
 **                                                                           **
 *******************************************************************************
 **          Digital Object Identifier (DOI): 10.5281/zenodo.6511958          **
 **    Visit the DOI location for information on how to cite this program.    **
 *******************************************************************************

                              PM7 CALCULATION RESULTS

 *******************************************************************************
 *  CALCULATION DONE:                                Fri Jan 26 11:24:03 2024  *
 *  PM7        - The PM7 Hamiltonian to be used
 *  SINGLET    - SPIN STATE DEFINED AS A SINGLET
 *
 *
 *
 *                 CHARGE ON SYSTEM = +1
 *
 *
 *
 *  OLDGEO     - PREVIOUS GEOMETRY TO BE USED
 *  PRECISE    - TIGHTER CRITERIA TO BE USED
 *  T=         - A TIME OF 172800.0 SECONDS REQUESTED
 *  DUMP=N     - RESTART FILE WRITTEN EVERY 7200.0 SECONDS REQUESTED
 *  THERMO     - THERMODYNAMIC QUANTITIES TO BE CALCULATED
 *******************************************************************************
OLDGEO CHARGE=1 SINGLET PRECISE PM7 THERMO
 metylamonium(+), PM7

   ATOM   CHEMICAL          X               Y               Z
  NUMBER   SYMBOL      (ANGSTROMS)     (ANGSTROMS)     (ANGSTROMS)
 
     1       C         -6.38763507  *   1.14025951  *   0.00724134  *
     2       N         -4.88572477  *   1.06645828  *   0.10152282  *
     3       H         -6.70662399  *   1.74366778  *  -0.86791260  *
     4       H         -6.82534778  *   1.60628741  *   0.91441432  *
     5       H         -6.83390078  *   0.12981818  *  -0.10038816  *
     6       H         -4.47798669  *   2.01374453  *   0.20198745  *
     7       H         -4.48630730  *   0.63049552  *  -0.74943337  *
     8       H         -4.59734855  *   0.50121114  *   0.92071640  *
 


          CARTESIAN COORDINATES 

    NO.       ATOM           X           Y           Z

     1         C         -6.3876      1.1403      0.0072
     2         N         -4.8857      1.0665      0.1015
     3         H         -6.7066      1.7437     -0.8679
     4         H         -6.8253      1.6063      0.9144
     5         H         -6.8339      0.1298     -0.1004
     6         H         -4.4780      2.0137      0.2020
     7         H         -4.4863      0.6305     -0.7494
     8         H         -4.5973      0.5012      0.9207

 General Reference for PM7:
 "Optimization of Parameters for Semiempirical Methods VI: More Modifications to the 
 NDDO Approximations and Re-optimization of Parameters", J. J. P. Stewart, J. Mol. Mod., 1:32, 19 (2013)
 https://link.springer.com/article/10.1007/s00894-012-1667-x

           Empirical Formula: C H6 N  =     8 atoms



      MOLECULAR POINT GROUP   :   C3v 


 SINGLET STATE CALCULATION


      RHF CALCULATION, NO. OF DOUBLY OCCUPIED LEVELS = 7



          HEAT OF FORMATION =     149.627248 KCALS/MOLE


          CARTESIAN COORDINATE DERIVATIVES

   NUMBER  ATOM         X            Y            Z

     1       C      0.017635     0.007396     0.014493
     2       N      0.013636    -0.000036     0.000537
     3       H     -0.009243     0.000031    -0.000946
     4       H     -0.015494     0.003413     0.000053
     5       H      0.014874     0.002776     0.000146
     6       H     -0.012653    -0.002449    -0.000002
     7       H     -0.014519    -0.005876    -0.006405
     8       H      0.005763    -0.005256    -0.007877
 


          GRADIENT NORM =   0.04364

          MOLECULAR WEIGHT =   32.07



          ROTATIONAL CONSTANTS IN CM(-1)

          A =    2.77448286   B =    0.65924077   C =    0.65923456



           PRINCIPAL MOMENTS OF INERTIA IN UNITS OF 10**(-40)*GRAM-CM**2

          A =       10.0894   B =       42.4621   C =       42.4625


          ORIENTATION OF MOLECULE IN FORCE CALCULATION

    NO.       ATOM         X         Y         Z

     1          C      -0.7968   -0.0000    0.0000
     2          N       0.7098   -0.0000    0.0000
     3          H      -1.1991    1.0344    0.0000
     4          H      -1.1992   -0.5172    0.8957
     5          H      -1.1989   -0.5172   -0.8959
     6          H       1.0762    0.4843    0.8396
     7          H       1.0761    0.4849   -0.8393
     8          H       1.0763   -0.9693   -0.0004


    FIRST DERIVATIVES WILL BE USED IN THE CALCULATION OF SECOND DERIVATIVES

          ESTIMATED TIME TO COMPLETE CALCULATION =        0.75 SECONDS

    FOR POINT-GROUP C3v  THERE ARE   6 UNIQUE SYMMETRY FUNCTIONS.

 STEP:   1 TIME =     0.03 SECS, INTEGRAL =      0.03 TIME LEFT: 172799.96
 STEP:   2 TIME =     0.03 SECS, INTEGRAL =      0.06 TIME LEFT: 172799.93
 STEP:   3 TIME =     0.03 SECS, INTEGRAL =      0.09 TIME LEFT: 172799.90
 STEP:   4 TIME =     0.03 SECS, INTEGRAL =      0.12 TIME LEFT: 172799.87
 STEP:   5 TIME =     0.03 SECS, INTEGRAL =      0.15 TIME LEFT: 172799.84
 STEP:   6 TIME =     0.03 SECS, INTEGRAL =      0.18 TIME LEFT: 172799.81
 STEP:   7 TIME =     0.03 SECS, INTEGRAL =      0.21 TIME LEFT: 172799.78
 STEP:   8 TIME =     0.03 SECS, INTEGRAL =      0.24 TIME LEFT: 172799.75
 STEP:   9 TIME =     0.04 SECS, INTEGRAL =      0.27 TIME LEFT: 172799.72
 STEP:  10                       INTEGRAL =      0.27 TIME LEFT: 172799.72
 STEP:  11                       INTEGRAL =      0.27 TIME LEFT: 172799.72
 STEP:  12                       INTEGRAL =      0.27 TIME LEFT: 172799.72
 STEP:  13                       INTEGRAL =      0.27 TIME LEFT: 172799.72
 STEP:  14                       INTEGRAL =      0.27 TIME LEFT: 172799.72
 STEP:  15                       INTEGRAL =      0.27 TIME LEFT: 172799.72
 STEP:  16 TIME =     0.03 SECS, INTEGRAL =      0.30 TIME LEFT: 172799.69
 STEP:  17 TIME =     0.03 SECS, INTEGRAL =      0.33 TIME LEFT: 172799.66
 STEP:  18 TIME =     0.03 SECS, INTEGRAL =      0.36 TIME LEFT: 172799.63
 STEP:  19                       INTEGRAL =      0.36 TIME LEFT: 172799.63
 STEP:  20                       INTEGRAL =      0.36 TIME LEFT: 172799.63
 STEP:  21                       INTEGRAL =      0.36 TIME LEFT: 172799.63
 STEP:  22                       INTEGRAL =      0.36 TIME LEFT: 172799.63
 STEP:  23                       INTEGRAL =      0.36 TIME LEFT: 172799.63
 STEP:  24                       INTEGRAL =      0.36 TIME LEFT: 172799.63

(To convert to Hartree/Bohr^2, multiply by (10^(-21) x N x a0^2)/(4.184 x 627.51) =  0.0642)


           FORCE MATRIX IN MILLIDYNES/ANGSTROM


                  C  1       N  2       H  3       H  4       H  5       H  6
 ------------------------------------------------------------------------------
     C    1  11.172799
     N    2   3.319722  12.793368
     H    3   3.293251   0.755363   4.023270
     H    4   3.292562   0.754273   0.426996   4.023270
     H    5   3.292579   0.754619   0.426990   0.426990   4.023270
     H    6   0.708944   3.485991   0.040275   0.040242   0.086713   4.159625
     H    7   0.709061   3.485319   0.040285   0.086702   0.040275   0.593022
     H    8   0.708916   3.485281   0.086702   0.040285   0.040285   0.593197


                  H  7       H  8
 ------------------------------
     H    7   4.159625
     H    8   0.593022   4.159625


          HEAT OF FORMATION =     149.627248 KCALS/MOLE

          ZERO POINT ENERGY      43.372 KCAL/MOL


           NORMAL COORDINATE ANALYSIS (Total motion = 1 Angstrom)


   Root No.       1         2         3         4         5         6         7         8

                 1 A2      1 E       1 E       1 A1      2 E       2 E       3 E       3 E   

                 199.6    1005.2    1005.2    1075.4    1241.1    1241.1    1283.2    1283.2
  
           1   -0.0000    0.0000   -0.0000    0.2419   -0.0000   -0.0000   -0.0000    0.0000
           2    0.0000    0.0220    0.0141   -0.0000   -0.0396   -0.0292   -0.0000    0.0411
           3    0.0000    0.0145   -0.0215   -0.0000    0.0286   -0.0404   -0.0427   -0.0000
           4   -0.0000    0.0000   -0.0000   -0.1861    0.0000    0.0000    0.0000   -0.0000
           5   -0.0000    0.0097    0.0062    0.0000    0.0087    0.0064    0.0000   -0.0489
           6   -0.0000    0.0064   -0.0095    0.0000   -0.0063    0.0089    0.0508    0.0000
           7    0.0000   -0.1971   -0.1269    0.0329   -0.0769   -0.0566    0.0002   -0.2005
           8    0.0000   -0.0688   -0.0443   -0.0479   -0.0527   -0.0389    0.0001   -0.0451
           9    0.1613   -0.0443    0.0657    0.0000   -0.2279    0.3221   -0.0338   -0.0000
          10   -0.0000   -0.0139    0.2304    0.0329    0.0865   -0.0396    0.1803    0.1004
          11   -0.1396   -0.0672   -0.0442    0.0239    0.1084    0.3275   -0.0349    0.0131
          12   -0.0806   -0.0444    0.0674   -0.0415    0.1311    0.1577    0.0267    0.0336
          13   -0.0000    0.2110   -0.1034    0.0329   -0.0096    0.0963   -0.1805    0.1001
          14    0.1397   -0.0681   -0.0429    0.0239    0.3387    0.0019    0.0349    0.0131
          15   -0.0806   -0.0458    0.0665    0.0415   -0.1879   -0.0774    0.0267   -0.0336
          16    0.0000    0.1697   -0.0832   -0.1320   -0.0053    0.0527    0.1946   -0.1079
          17    0.1490   -0.0641   -0.0425    0.0061   -0.0154   -0.0105    0.0162    0.0787
          18   -0.0860   -0.0410    0.0628    0.0106    0.0109   -0.0143   -0.0629   -0.0158
          19   -0.0000   -0.0111    0.1853   -0.1320    0.0473   -0.0217   -0.1944   -0.1083
          20   -0.1490   -0.0652   -0.0408    0.0061   -0.0146   -0.0116   -0.0164    0.0787
          21   -0.0860   -0.0428    0.0616   -0.0106    0.0099   -0.0151   -0.0629    0.0156
          22   -0.0000   -0.1585   -0.1021   -0.1320   -0.0421   -0.0310   -0.0002    0.2161
          23   -0.0000   -0.0631   -0.0406   -0.0123   -0.0141   -0.0104   -0.0001    0.0515
          24    0.1721   -0.0429    0.0637   -0.0000    0.0111   -0.0156   -0.0912   -0.0001


   Root No.       9        10        11        12        13        14        15        16

                 2 A1      4 E       4 E       3 A1      5 E       5 E       6 E       6 E   

                1356.9    1580.4    1580.4    1608.1    2594.7    2594.7    2627.8    2627.8
  
           1   -0.0317   -0.0000   -0.0000   -0.0055   -0.0000   -0.0000   -0.0000   -0.0000
           2    0.0000   -0.0057    0.0005    0.0000   -0.0300   -0.0087    0.0067   -0.0206
           3    0.0000   -0.0005   -0.0057    0.0000    0.0088   -0.0296   -0.0200   -0.0069
           4   -0.0297   -0.0000   -0.0000   -0.0502    0.0000    0.0000   -0.0000   -0.0000
           5    0.0000   -0.0294    0.0026    0.0000    0.0158    0.0046    0.0087   -0.0268
           6   -0.0000   -0.0026   -0.0293   -0.0000   -0.0047    0.0156   -0.0260   -0.0089
           7    0.2753    0.0197   -0.0017   -0.0179   -0.1118   -0.0326    0.0240   -0.0740
           8    0.1193   -0.0023    0.0002    0.0005    0.2670    0.0778   -0.0541    0.1670
           9    0.0000   -0.0002   -0.0017   -0.0000    0.0043   -0.0143   -0.0077   -0.0026
          10    0.2753   -0.0084    0.0179   -0.0179    0.0845   -0.0793   -0.0742    0.0156
          11   -0.0597   -0.0018    0.0004   -0.0002    0.0919   -0.1041   -0.0851    0.0105
          12    0.1033    0.0001   -0.0022    0.0004   -0.1799    0.1587    0.1442   -0.0346
          13    0.2753   -0.0114   -0.0162   -0.0179    0.0273    0.1119    0.0502    0.0584
          14   -0.0597   -0.0019   -0.0001   -0.0003    0.0200    0.1367    0.0619    0.0611
          15   -0.1033   -0.0005   -0.0021   -0.0004    0.0639    0.2298    0.0951    0.1169
          16   -0.0120    0.1032    0.1467    0.2723   -0.0169   -0.0691    0.0784    0.0912
          17   -0.0023    0.2635   -0.2326   -0.0591   -0.0115   -0.0882    0.0999    0.0968
          18   -0.0039   -0.2055    0.0583   -0.1024   -0.0418   -0.1475    0.1515    0.1874
          19   -0.0120    0.0761   -0.1623    0.2723   -0.0522    0.0490   -0.1158    0.0244
          20   -0.0023    0.3000    0.1836   -0.0591   -0.0581    0.0679   -0.1363    0.0156
          21    0.0039    0.2126    0.0220    0.1024    0.1162   -0.1015    0.2304   -0.0560
          22   -0.0120   -0.1792    0.0156    0.2723    0.0690    0.0201    0.0374   -0.1155
          23    0.0046   -0.0803    0.0070    0.1183   -0.1716   -0.0500   -0.0865    0.2670
          24   -0.0000    0.0351    0.4006    0.0000   -0.0032    0.0106   -0.0137   -0.0047


   Root No.      17        18

                 4 A1      5 A1  

                2703.3    2730.8
  
           1    0.0081    0.0196
           2    0.0000   -0.0000
           3   -0.0000   -0.0000
           4    0.0176    0.0018
           5   -0.0000    0.0000
           6    0.0000    0.0000
           7   -0.0142   -0.1016
           8    0.0416    0.2605
           9   -0.0000    0.0000
          10   -0.0142   -0.1016
          11   -0.0208   -0.1302
          12    0.0361    0.2256
          13   -0.0142   -0.1016
          14   -0.0209   -0.1302
          15   -0.0360   -0.2256
          16   -0.0994    0.0151
          17   -0.1313    0.0220
          18   -0.2274    0.0382
          19   -0.0994    0.0151
          20   -0.1313    0.0220
          21    0.2274   -0.0381
          22   -0.0994    0.0151
          23    0.2626   -0.0441
          24    0.0000   -0.0000


           MASS-WEIGHTED COORDINATE ANALYSIS (NORMAL COORDINATES)


   Root No.       1         2         3         4         5         6         7         8

                 1 A2      1 E       1 E       1 A1      2 E       2 E       3 E       3 E   

                 199.6    1005.2    1005.2    1075.4    1241.1    1241.1    1283.2    1283.2
  
           1   -0.0000    0.0000   -0.0000    0.7496   -0.0000   -0.0000    0.0000    0.0000
           2    0.0000    0.1768    0.1150   -0.0000   -0.2573   -0.1857   -0.0003    0.3142
           3    0.0000    0.1150   -0.1768   -0.0000    0.1857   -0.2573    0.3142    0.0003
           4   -0.0000    0.0000   -0.0000   -0.6225    0.0000    0.0000   -0.0000   -0.0000
           5   -0.0000    0.0842    0.0548    0.0000    0.0614    0.0443    0.0003   -0.4038
           6   -0.0000    0.0548   -0.0842    0.0000   -0.0443    0.0614   -0.4038   -0.0003
           7    0.0000   -0.4596   -0.2990    0.0295   -0.1447   -0.1045    0.0003   -0.4440
           8    0.0000   -0.1605   -0.1044   -0.0430   -0.0993   -0.0717    0.0001   -0.0999
           9    0.3948   -0.1020    0.1567    0.0000   -0.4290    0.5941    0.0720    0.0001
          10   -0.0000   -0.0292    0.5475    0.0295    0.1628   -0.0731   -0.3847    0.2218
          11   -0.3419   -0.1566   -0.1042    0.0215    0.2040    0.6041    0.0744    0.0291
          12   -0.1974   -0.1022    0.1606   -0.0372    0.2468    0.2909   -0.0570    0.0744
          13   -0.0000    0.4887   -0.2485    0.0295   -0.0181    0.1775    0.3844    0.2223
          14    0.3419   -0.1587   -0.1009    0.0215    0.6376    0.0035   -0.0745    0.0290
          15   -0.1974   -0.1055    0.1585    0.0372   -0.3537   -0.1427   -0.0569   -0.0745
          16    0.0000    0.3930   -0.1998   -0.1185   -0.0099    0.0972   -0.4143   -0.2396
          17    0.3648   -0.1494   -0.1001    0.0055   -0.0290   -0.0194   -0.0349    0.1742
          18   -0.2106   -0.0944    0.1497    0.0095    0.0206   -0.0264    0.1341   -0.0347
          19   -0.0000   -0.0234    0.4403   -0.1185    0.0891   -0.0400    0.4147   -0.2390
          20   -0.3648   -0.1521   -0.0960    0.0055   -0.0276   -0.0214    0.0347    0.1743
          21   -0.2106   -0.0986    0.1470   -0.0095    0.0186   -0.0278    0.1340    0.0349
          22   -0.0000   -0.3696   -0.2404   -0.1185   -0.0792   -0.0572   -0.0003    0.4786
          23   -0.0000   -0.1471   -0.0957   -0.0110   -0.0266   -0.0192   -0.0001    0.1140
          24    0.4213   -0.0988    0.1519   -0.0000    0.0208   -0.0288    0.1943    0.0001


   Root No.       9        10        11        12        13        14        15        16

                 2 A1      4 E       4 E       3 A1      5 E       5 E       6 E       6 E   

                1356.9    1580.4    1580.4    1608.1    2594.7    2594.7    2627.8    2627.8
  
           1   -0.2014   -0.0000   -0.0000   -0.0345   -0.0000   -0.0000   -0.0000   -0.0000
           2    0.0000   -0.0351    0.0031    0.0000   -0.2265   -0.0668    0.0514   -0.1537
           3    0.0000   -0.0031   -0.0351    0.0000    0.0668   -0.2265   -0.1537   -0.0514
           4   -0.2038   -0.0000   -0.0000   -0.3413    0.0000    0.0000   -0.0000   -0.0000
           5    0.0000   -0.1951    0.0169    0.0000    0.1289    0.0380    0.0722   -0.2161
           6   -0.0000   -0.0169   -0.1951   -0.0000   -0.0380    0.1289   -0.2161   -0.0722
           7    0.5071    0.0351   -0.0030   -0.0326   -0.2449   -0.0722    0.0535   -0.1599
           8    0.2198   -0.0041    0.0004    0.0009    0.5850    0.1725   -0.1207    0.3610
           9    0.0000   -0.0003   -0.0030   -0.0000    0.0094   -0.0317   -0.0171   -0.0057
          10    0.5071   -0.0149    0.0319   -0.0326    0.1850   -0.1760   -0.1652    0.0336
          11   -0.1099   -0.0032    0.0008   -0.0004    0.2012   -0.2309   -0.1896    0.0227
          12    0.1903    0.0002   -0.0039    0.0008   -0.3941    0.3521    0.3213   -0.0746
          13    0.5071   -0.0202   -0.0289   -0.0326    0.0599    0.2482    0.1118    0.1263
          14   -0.1099   -0.0033   -0.0002   -0.0005    0.0438    0.3031    0.1378    0.1322
          15   -0.1903   -0.0008   -0.0038   -0.0007    0.1400    0.5096    0.2118    0.2528
          16   -0.0221    0.1833    0.2622    0.4965   -0.0370   -0.1533    0.1746    0.1973
          17   -0.0042    0.4688   -0.4152   -0.1078   -0.0253   -0.1955    0.2225    0.2095
          18   -0.0073   -0.3655    0.1040   -0.1868   -0.0916   -0.3272    0.3373    0.4054
          19   -0.0221    0.1355   -0.2899    0.4965   -0.1143    0.1087   -0.2581    0.0526
          20   -0.0042    0.5333    0.3283   -0.1079   -0.1274    0.1505   -0.3038    0.0335
          21    0.0073    0.3780    0.0395    0.1867    0.2545   -0.2251    0.5133   -0.1209
          22   -0.0221   -0.3187    0.0276    0.4965    0.1512    0.0446    0.0835   -0.2498
          23    0.0084   -0.1429    0.0124    0.2156   -0.3760   -0.1109   -0.1930    0.5772
          24   -0.0000    0.0621    0.7157    0.0000   -0.0070    0.0236   -0.0305   -0.0102


   Root No.      17        18

                 4 A1      5 A1  

                2703.3    2730.8
  
           1    0.0559    0.1367
           2    0.0000   -0.0000
           3   -0.0000   -0.0000
           4    0.1320    0.0139
           5   -0.0000    0.0000
           6    0.0000    0.0000
           7   -0.0286   -0.2050
           8    0.0837    0.5255
           9   -0.0001    0.0000
          10   -0.0286   -0.2050
          11   -0.0418   -0.2628
          12    0.0726    0.4551
          13   -0.0286   -0.2050
          14   -0.0419   -0.2627
          15   -0.0725   -0.4551
          16   -0.1998    0.0305
          17   -0.2639    0.0444
          18   -0.4573    0.0770
          19   -0.1998    0.0305
          20   -0.2641    0.0445
          21    0.4572   -0.0770
          22   -0.1998    0.0305
          23    0.5280   -0.0889
          24    0.0001   -0.0000


          DESCRIPTION OF VIBRATIONS


 VIBRATION          1    1A2         ATOM PAIR     ENERGY CONTRIBUTION    RADIAL
 FREQUENCY           199.62         N 2 -- H 7         +21.4% (250.1%)      0.0%
 TRANSITION DIPOLE   0.0000         N 2 -- H 8         +21.4% (250.1%)      0.0%
 TRAVEL (Ang.)       0.0000         N 2 -- H 6         +21.4% (250.1%)      0.0%
 REDUCED MASS        0.1687         C 1 -- H 5         +11.9% (186.3%)      0.0%
 EFFECTIVE MASS      1.0079         C 1 -- H 3         +11.9% (186.3%)      0.0%
 FORCE CONSTANT      0.0040         C 1 -- H 4         +11.9% (186.3%)      0.0%

 VIBRATION          3    1E          ATOM PAIR     ENERGY CONTRIBUTION    RADIAL
 FREQUENCY          1005.22         C 1 -- H 4         +31.0% ( 72.2%)      6.7%
 TRANSITION DIPOLE   0.6267         N 2 -- H 7         +24.2% ( 63.8%)      3.9%
 TRAVEL (Ang.)       0.5415         C 1 -- H 3         +13.1% ( 47.1%)      3.7%
 REDUCED MASS        0.2288         C 1 -- H 5         +10.8% ( 42.7%)      2.9%
 EFFECTIVE MASS      1.5478         N 2 -- H 8         +10.1% ( 41.3%)      2.3%
 FORCE CONSTANT      0.1362

 VIBRATION          4    1A1         ATOM PAIR     ENERGY CONTRIBUTION    RADIAL
 FREQUENCY          1075.37         C 1 -- N 2         +33.6% (102.3%)    100.0%
 TRANSITION DIPOLE   0.0050         C 1 -- H 3         +13.1% ( 63.8%)      9.4%
 TRAVEL (Ang.)       0.1031         C 1 -- H 4         +13.1% ( 63.8%)      9.4%
 REDUCED MASS        5.8956         C 1 -- H 5         +13.1% ( 63.8%)      9.4%
 EFFECTIVE MASS     12.9231
 FORCE CONSTANT      4.0169

 VIBRATION          6    2E          ATOM PAIR     ENERGY CONTRIBUTION    RADIAL
 FREQUENCY          1241.06         C 1 -- H 4         +44.6% ( 62.4%)      1.1%
 TRANSITION DIPOLE   0.7220         C 1 -- H 3         +36.6% ( 56.6%)      2.8%
 TRAVEL (Ang.)       0.3397         C 1 -- N 2          +7.9% ( 26.2%)      0.0%
 REDUCED MASS        0.4708         C 1 -- H 5          +7.2% ( 25.1%)     74.6%
 EFFECTIVE MASS      1.9618
 FORCE CONSTANT      0.4273

 VIBRATION          8    3E          ATOM PAIR     ENERGY CONTRIBUTION    RADIAL
 FREQUENCY          1283.22         N 2 -- H 8         +25.7% ( 59.3%)     20.0%
 TRANSITION DIPOLE   0.3162         C 1 -- H 3         +17.5% ( 48.9%)     13.7%
 TRAVEL (Ang.)       0.2926         N 2 -- H 6         +15.2% ( 45.5%)      6.3%
 REDUCED MASS        0.6138         N 2 -- H 7         +15.1% ( 45.5%)      6.3%
 EFFECTIVE MASS      3.5409         C 1 -- N 2         +12.2% ( 40.8%)      0.0%
 FORCE CONSTANT      0.5955

 VIBRATION          9    2A1         ATOM PAIR     ENERGY CONTRIBUTION    RADIAL
 FREQUENCY          1356.93         C 1 -- H 4         +30.1% ( 50.7%)      0.5%
 TRANSITION DIPOLE   0.5786         C 1 -- H 3         +30.1% ( 50.7%)      0.5%
 TRAVEL (Ang.)       0.3904         C 1 -- H 5         +30.1% ( 50.7%)      0.5%
 REDUCED MASS        0.3260         C 1 -- N 2          +2.9% ( 15.8%)    100.0%
 EFFECTIVE MASS      1.6072
 FORCE CONSTANT      0.3536

 VIBRATION         11    4E          ATOM PAIR     ENERGY CONTRIBUTION    RADIAL
 FREQUENCY          1580.42         N 2 -- H 8         +52.2% ( 59.1%)      0.0%
 TRANSITION DIPOLE   0.5063         N 2 -- H 6         +25.7% ( 41.5%)      5.1%
 TRAVEL (Ang.)       0.3317         N 2 -- H 7         +19.8% ( 36.4%)      9.1%
 REDUCED MASS        0.3877         C 1 -- N 2          +1.9% ( 11.3%)      0.0%
 EFFECTIVE MASS      1.3209
 FORCE CONSTANT      0.5705

 VIBRATION         12    3A1         ATOM PAIR     ENERGY CONTRIBUTION    RADIAL
 FREQUENCY          1608.08         N 2 -- H 6         +31.8% ( 53.8%)      1.2%
 TRANSITION DIPOLE   0.6969         N 2 -- H 8         +31.8% ( 53.8%)      1.2%
 TRAVEL (Ang.)       0.3053         N 2 -- H 7         +31.8% ( 53.8%)      1.2%
 REDUCED MASS        0.4498         C 1 -- N 2          +4.4% ( 20.0%)    100.0%
 EFFECTIVE MASS      1.9572
 FORCE CONSTANT      0.6853

 VIBRATION         14    5E          ATOM PAIR     ENERGY CONTRIBUTION    RADIAL
 FREQUENCY          2594.74         C 1 -- H 5         +43.9% ( 68.9%)     99.1%
 TRANSITION DIPOLE   0.2395         C 1 -- H 4         +22.4% ( 49.2%)     93.9%
 TRAVEL (Ang.)       0.2967         N 2 -- H 6         +17.6% ( 43.7%)     99.3%
 REDUCED MASS        0.2953         N 2 -- H 7          +9.0% ( 31.1%)     95.3%
 EFFECTIVE MASS      1.4571
 FORCE CONSTANT      1.1712

 VIBRATION         16    6E          ATOM PAIR     ENERGY CONTRIBUTION    RADIAL
 FREQUENCY          2627.82         N 2 -- H 8         +41.9% ( 66.4%)     99.1%
 TRANSITION DIPOLE   1.7004         N 2 -- H 6         +26.3% ( 52.6%)     95.9%
 TRAVEL (Ang.)       0.2925         C 1 -- H 3         +16.9% ( 42.1%)     98.8%
 REDUCED MASS        0.2998         C 1 -- H 5         +10.6% ( 33.5%)     94.7%
 EFFECTIVE MASS      1.4811
 FORCE CONSTANT      1.2200

 VIBRATION         17    4A1         ATOM PAIR     ENERGY CONTRIBUTION    RADIAL
 FREQUENCY          2703.31         N 2 -- H 7         +32.4% ( 54.9%)     96.1%
 TRANSITION DIPOLE   0.9191         N 2 -- H 6         +32.4% ( 54.9%)     96.1%
 TRAVEL (Ang.)       0.2829         N 2 -- H 8         +32.4% ( 54.9%)     96.1%
 REDUCED MASS        0.3116         C 1 -- H 3          +0.9% (  9.0%)     83.4%
 EFFECTIVE MASS      1.1336
 FORCE CONSTANT      1.3416

 VIBRATION         18    5A1         ATOM PAIR     ENERGY CONTRIBUTION    RADIAL
 FREQUENCY          2730.83         C 1 -- H 5         +32.4% ( 54.3%)     95.8%
 TRANSITION DIPOLE   0.4128         C 1 -- H 3         +32.4% ( 54.3%)     95.8%
 TRAVEL (Ang.)       0.2820         C 1 -- H 4         +32.4% ( 54.3%)     95.8%
 REDUCED MASS        0.3106         N 2 -- H 6          +0.8% (  8.8%)     96.9%
 EFFECTIVE MASS      1.1137
 FORCE CONSTANT      1.3647

      SYMMETRY NUMBER FOR POINT-GROUP C3v =  3


          SYSTEM IS A GROUND STATE



 metylamonium(+), PM7


          MOLECULE IS NOT LINEAR

          THERE ARE 18 GENUINE VIBRATIONS IN THIS SYSTEM
          THIS THERMODYNAMICS CALCULATION IS LIMITED TO
          MOLECULES WHICH HAVE NO INTERNAL ROTATIONS




                    CALCULATED THERMODYNAMIC PROPERTIES
                                          *
   TEMP. (K)   PARTITION FUNCTION   H.O.F.    ENTHALPY  HEAT CAPACITY ENTROPY
                                   KCAL/MOL   CAL/MOLE    CAL/K/MOL  CAL/K/MOL


 298.00  VIB.     0.1671D+01                   459.1424     3.8452     2.5612
         ROT.     0.1604D+04                   888.2803     2.9808    17.6467
         INT.     0.2680D+04                  1347.4227     6.8260    20.2079
         TRA.     0.1755D+27                  1480.4672     4.9680    36.3254
         TOT.                      149.627    2827.8899    11.7940    56.5333

 200.00  VIB.     0.1315D+01                   185.6670     1.9754     1.4730
         ROT.     0.8818D+03                   596.1613     2.9808    16.4580
         INT.     0.1160D+04                   781.8283     4.9562    17.9309
         TRA.     0.9651D+26                   993.6021     4.9680    34.3442
         TOT.                      148.575    1775.4305     9.9242    52.2752

 210.00  VIB.     0.1346D+01                   206.0294     2.0995     1.5723
         ROT.     0.9488D+03                   625.9693     2.9808    16.6034
         INT.     0.1277D+04                   831.9987     5.0803    18.1757
         TRA.     0.1038D+27                  1043.2822     4.9680    34.5866
         TOT.                      148.675    1875.2809    10.0483    52.7623

 220.00  VIB.     0.1379D+01                   227.7055     2.2383     1.6731
         ROT.     0.1017D+04                   655.7774     2.9808    16.7421
         INT.     0.1403D+04                   883.4829     5.2191    18.4152
         TRA.     0.1113D+27                  1092.9623     4.9680    34.8177
         TOT.                      148.776    1976.4452    10.1871    53.2329

 230.00  VIB.     0.1412D+01                   250.8469     2.3926     1.7759
         ROT.     0.1087D+04                   685.5855     2.9808    16.8746
         INT.     0.1535D+04                   936.4324     5.3734    18.6505
         TRA.     0.1190D+27                  1142.6424     4.9680    35.0386
         TOT.                      148.878    2079.0749    10.3414    53.6891

 240.00  VIB.     0.1446D+01                   275.6108     2.5628     1.8813
         ROT.     0.1159D+04                   715.3935     2.9808    17.0014
         INT.     0.1676D+04                   991.0043     5.5436    18.8827
         TRA.     0.1269D+27                  1192.3226     4.9680    35.2500
         TOT.                      148.983    2183.3269    10.5116    54.1328

 250.00  VIB.     0.1481D+01                   302.1556     2.7488     1.9896
         ROT.     0.1232D+04                   745.2016     2.9808    17.1231
         INT.     0.1826D+04                  1047.3572     5.7296    19.1128
         TRA.     0.1349D+27                  1242.0027     4.9680    35.4528
         TOT.                      149.089    2289.3599    10.6976    54.5656

 260.00  VIB.     0.1518D+01                   330.6383     2.9503     2.1013
         ROT.     0.1307D+04                   775.0097     2.9808    17.2400
         INT.     0.1984D+04                  1105.6480     5.9311    19.3414
         TRA.     0.1431D+27                  1291.6828     4.9680    35.6477
         TOT.                      149.197    2397.3307    10.8991    54.9890

 270.00  VIB.     0.1556D+01                   361.2112     3.1667     2.2167
         ROT.     0.1383D+04                   804.8177     2.9808    17.3525
         INT.     0.2153D+04                  1166.0289     6.1475    19.5692
         TRA.     0.1514D+27                  1341.3629     4.9680    35.8352
         TOT.                      149.307    2507.3918    11.1155    55.4044

 280.00  VIB.     0.1596D+01                   394.0199     3.3973     2.3360
         ROT.     0.1461D+04                   834.6258     2.9808    17.4609
         INT.     0.2331D+04                  1228.6457     6.3781    19.7969
         TRA.     0.1599D+27                  1391.0430     4.9680    36.0158
         TOT.                      149.419    2619.6887    11.3461    55.8128

 290.00  VIB.     0.1637D+01                   429.2019     3.6412     2.4594
         ROT.     0.1540D+04                   864.4339     2.9808    17.5655
         INT.     0.2520D+04                  1293.6357     6.6220    20.0249
         TRA.     0.1685D+27                  1440.7231     4.9680    36.1902
         TOT.                      149.534    2734.3588    11.5900    56.2151

 300.00  VIB.     0.1680D+01                   466.8849     3.8974     2.5871
         ROT.     0.1620D+04                   894.2419     2.9808    17.6666
         INT.     0.2721D+04                  1361.1268     6.8782    20.2537
         TRA.     0.1773D+27                  1490.4032     4.9680    36.3586
         TOT.                      149.651    2851.5300    11.8462    56.6123

 310.00  VIB.     0.1725D+01                   507.1867     4.1648     2.7193
         ROT.     0.1702D+04                   924.0500     2.9808    17.7643
         INT.     0.2935D+04                  1431.2367     7.1456    20.4836
         TRA.     0.1862D+27                  1540.0833     4.9680    36.5215
         TOT.                      149.771    2971.3200    12.1136    57.0051

 320.00  VIB.     0.1772D+01                   550.2142     4.4423     2.8558
         ROT.     0.1785D+04                   953.8580     2.9808    17.8590
         INT.     0.3162D+04                  1504.0723     7.4231    20.7148
         TRA.     0.1953D+27                  1589.7634     4.9680    36.6792
         TOT.                      149.893    3093.8357    12.3911    57.3940

 330.00  VIB.     0.1821D+01                   596.0635     4.7290     2.9969
         ROT.     0.1869D+04                   983.6661     2.9808    17.9507
         INT.     0.3403D+04                  1579.7296     7.7098    20.9476
         TRA.     0.2046D+27                  1639.4435     4.9680    36.8321
         TOT.                      150.019    3219.1732    12.6778    57.7797

 340.00  VIB.     0.1872D+01                   644.8201     5.0236     3.1424
         ROT.     0.1955D+04                  1013.4742     2.9808    18.0397
         INT.     0.3659D+04                  1658.2943     8.0044    21.1821
         TRA.     0.2139D+27                  1689.1236     4.9680    36.9804
         TOT.                      150.147    3347.4179    12.9724    58.1625

 350.00  VIB.     0.1926D+01                   696.5590     5.3253     3.2924
         ROT.     0.2041D+04                  1043.2822     2.9808    18.1261
         INT.     0.3931D+04                  1739.8413     8.3061    21.4185
         TRA.     0.2234D+27                  1738.8037     4.9680    37.1244
         TOT.                      150.278    3478.6450    13.2741    58.5429

 360.00  VIB.     0.1982D+01                   751.3453     5.6329     3.4467
         ROT.     0.2130D+04                  1073.0903     2.9808    18.2101
         INT.     0.4221D+04                  1824.4356     8.6137    21.6568
         TRA.     0.2331D+27                  1788.4838     4.9680    37.2644
         TOT.                      150.412    3612.9194    13.5817    58.9212

 370.00  VIB.     0.2041D+01                   809.2346     5.9457     3.6053
         ROT.     0.2219D+04                  1102.8984     2.9808    18.2917
         INT.     0.4530D+04                  1912.1329     8.9265    21.8970
         TRA.     0.2429D+27                  1838.1639     4.9680    37.4005
         TOT.                      150.550    3750.2969    13.8945    59.2975

 380.00  VIB.     0.2104D+01                   870.2735     6.2627     3.7681
         ROT.     0.2309D+04                  1132.7064     2.9808    18.3712
         INT.     0.4858D+04                  2002.9799     9.2435    22.1393
         TRA.     0.2528D+27                  1887.8440     4.9680    37.5330
         TOT.                      150.690    3890.8240    14.2115    59.6723

 390.00  VIB.     0.2169D+01                   934.5005     6.5832     3.9349
         ROT.     0.2401D+04                  1162.5145     2.9808    18.4487
         INT.     0.5208D+04                  2097.0150     9.5640    22.3835
         TRA.     0.2628D+27                  1937.5242     4.9680    37.6620
         TOT.                      150.834    4034.5391    14.5320    60.0456

 400.00  VIB.     0.2238D+01                  1001.9463     6.9064     4.1056
         ROT.     0.2494D+04                  1192.3226     2.9808    18.5241
         INT.     0.5582D+04                  2194.2688     9.8872    22.6297
         TRA.     0.2730D+27                  1987.2043     4.9680    37.7878
         TOT.                      150.981    4181.4731    14.8552    60.4176

   *: NOTE: HEATS OF FORMATION ARE RELATIVE TO THE
            ELEMENTS IN THEIR STANDARD STATE AT 298K
              (=  Standard Enthalpy of Formation).

            Hvib:  Zero-point energy is not included.
                   frequencies of less than zero cm-1 are not included.
            Hrot = (3/2)RT
            Htra = (3/2)RT + pV = (5/2)RT

            Heat capacity is Cp, not Cv

          For more information, see: HTTP://OpenMOPAC.net/Manual/thermochemistry.html


           FORCE CONSTANT IN CARTESIAN COORDINATES (Millidynes/A)

    ATOM   CHEMICAL       X               Y               Z
   NUMBER   SYMBOL  FORCE CONSTANT  FORCE CONSTANT  FORCE CONSTANT

      1       C        6.295969        6.528661        6.528661
      2       N        7.878375        7.126050        7.126050
      3       H        1.254579        3.434701        0.526833
      4       H        1.254600        1.253802        2.707710
      5       H        1.254636        1.253758        2.707718
      6       H        1.451250        1.503459        2.842836
      7       H        1.451217        1.503500        2.842828
      8       H        1.451198        3.512526        0.833821

 **********************
 *                    *
 * JOB ENDED NORMALLY *
 *                    *
 **********************



 TOTAL JOB TIME:             0.72 SECONDS

 == MOPAC DONE ==
