 *******************************************************************************
 **                                                                           **
 **                              MOPAC v22.1.0                                **
 **                                                                           **
 *******************************************************************************
 **          Digital Object Identifier (DOI): 10.5281/zenodo.6511958          **
 **    Visit the DOI location for information on how to cite this program.    **
 *******************************************************************************

                              PM7 CALCULATION RESULTS

 *******************************************************************************
 *  CALCULATION DONE:                                Fri Jan 26 10:45:10 2024  *
 *  PM7        - The PM7 Hamiltonian to be used
 *  SINGLET    - SPIN STATE DEFINED AS A SINGLET
 *
 *
 *
 *                 CHARGE ON SYSTEM = 0
 *
 *
 *
 *  PRECISE    - TIGHTER CRITERIA TO BE USED
 *  T=         - A TIME OF 172800.0 SECONDS REQUESTED
 *  DUMP=N     - RESTART FILE WRITTEN EVERY 7200.0 SECONDS REQUESTED
 *  LARGE      - EXPANDED OUTPUT TO BE PRINTED
 *******************************************************************************
 PRECISE LARGE CHARGE=0 SINGLET  PM7
 metylamin, PM7

   ATOM   CHEMICAL          X               Y               Z
  NUMBER   SYMBOL      (ANGSTROMS)     (ANGSTROMS)     (ANGSTROMS)
 
     1       C         -6.27932000  *   1.13887000  *   0.01337000  *
     2       N         -4.82241000  *   1.15321000  *  -0.00781000  *
     3       H         -6.68679000  *   1.71889000  *  -0.84319000  *
     4       H         -6.64469000  *   1.58524000  *   0.96217000  *
     5       H         -6.64469000  *   0.09216000  *  -0.04887000  *
     6       H         -4.49264000  *   2.14456000  *   0.03899000  *
     7       H         -4.49264000  *   0.74173000  *  -0.91094000  *
 


          CARTESIAN COORDINATES 

    NO.       ATOM           X           Y           Z

     1         C         -6.2793      1.1389      0.0134
     2         N         -4.8224      1.1532     -0.0078
     3         H         -6.6868      1.7189     -0.8432
     4         H         -6.6447      1.5852      0.9622
     5         H         -6.6447      0.0922     -0.0489
     6         H         -4.4926      2.1446      0.0390
     7         H         -4.4926      0.7417     -0.9109

 General Reference for PM7:
 "Optimization of Parameters for Semiempirical Methods VI: More Modifications to the 
 NDDO Approximations and Re-optimization of Parameters", J. J. P. Stewart, J. Mol. Mod., 1:32, 19 (2013)
 https://link.springer.com/article/10.1007/s00894-012-1667-x

           Empirical Formula: C H5 N  =     7 atoms



      MOLECULAR POINT GROUP   :   Cs  


 SINGLET STATE CALCULATION


      RHF CALCULATION, NO. OF DOUBLY OCCUPIED LEVELS = 7


          Geometry optimization using EF

          DIAGONAL MATRIX USED AS START HESSIAN

 CYCLE:     1 TIME:   0.008 TIME LEFT:  2.00D  GRAD.:    50.924 HEAT: -1.630472
 CYCLE:     2 TIME:   0.012 TIME LEFT:  2.00D  GRAD.:    32.790 HEAT: -2.546808
 CYCLE:     3 TIME:   0.004 TIME LEFT:  2.00D  GRAD.:    25.921 HEAT: -2.803744
 CYCLE:     4 TIME:   0.008 TIME LEFT:  2.00D  GRAD.:    29.295 HEAT: -2.886070
 CYCLE:     5 TIME:   0.004 TIME LEFT:  2.00D  GRAD.:    22.416 HEAT: -3.072670
 CYCLE:     6 TIME:   0.008 TIME LEFT:  2.00D  GRAD.:    19.255 HEAT: -3.202804
 CYCLE:     7 TIME:   0.004 TIME LEFT:  2.00D  GRAD.:     5.866 HEAT: -3.358409
 CYCLE:     8 TIME:   0.004 TIME LEFT:  2.00D  GRAD.:     7.871 HEAT: -3.394313
 CYCLE:     9 TIME:   0.012 TIME LEFT:  2.00D  GRAD.:     3.139 HEAT: -3.427512
 CYCLE:    10 TIME:   0.004 TIME LEFT:  2.00D  GRAD.:     1.426 HEAT: -3.432638
 CYCLE:    11 TIME:   0.004 TIME LEFT:  2.00D  GRAD.:     1.021 HEAT: -3.434376
 CYCLE:    12 TIME:   0.008 TIME LEFT:  2.00D  GRAD.:     0.606 HEAT: -3.435660
 CYCLE:    13 TIME:   0.004 TIME LEFT:  2.00D  GRAD.:     0.153 HEAT: -3.436044
 CYCLE:    14 TIME:   0.008 TIME LEFT:  2.00D  GRAD.:     0.065 HEAT: -3.436074
 CYCLE:    15 TIME:   0.004 TIME LEFT:  2.00D  GRAD.:     0.037 HEAT: -3.436078

     GRADIENT =  0.03658 IS LESS THAN CUTOFF =  0.05000



 -------------------------------------------------------------------------------
 PRECISE LARGE CHARGE=0 SINGLET  PM7
 metylamin, PM7



     GEOMETRY OPTIMISED USING EIGENVECTOR FOLLOWING (EF).     
     SCF FIELD WAS ACHIEVED                                   


                              PM7 CALCULATION
                                                       MOPAC v22.1.0 Windows
                                                       Fri Jan 26 10:45:10 2024




          FINAL HEAT OF FORMATION =         -3.43608 KCAL/MOL =     -14.37655 KJ/MOL


          COSMO AREA              =         70.75 SQUARE ANGSTROMS
          COSMO VOLUME            =         51.97 CUBIC ANGSTROMS

          GRADIENT NORM           =          0.03658          =       0.01382 PER ATOM
          IONIZATION POTENTIAL    =          9.482132 EV
          HOMO LUMO ENERGIES (EV) =         -9.482  3.572
          NO. OF FILLED LEVELS    =          7
          MOLECULAR WEIGHT        =         31.0572         POINT GROUP:  Cs  

          MOLECULAR DIMENSIONS (Angstroms)

            Atom       Atom       Distance
            H     6    H     5     2.96292
            H     7    H     4     2.78840
            N     2    H     3     1.71296


          SCF CALCULATIONS        =         17
 
          WALL-CLOCK TIME         =      0.141 SECONDS
          COMPUTATION TIME        =      0.422 SECONDS




   ATOM   CHEMICAL          X               Y               Z
  NUMBER   SYMBOL      (ANGSTROMS)     (ANGSTROMS)     (ANGSTROMS)
 
     1       C         -6.29099392  *   1.14767594  *   0.00043936  *
     2       N         -4.81411542  *   1.16172201  *  -0.02023533  *
     3       H         -6.76478243  *   1.70452865  *  -0.82107857  *
     4       H         -6.64025897  *   1.57126253  *   0.95745025  *
     5       H         -6.64065022  *   0.10198206  *  -0.03843415  *
     6       H         -4.45326147  *   2.09844739  *   0.05307379  *
     7       H         -4.45311861  *   0.74422901  *  -0.86189388  *

                             CARTESIAN COORDINATES

   1    C       -6.290993924     1.147675942     0.000439365
   2    N       -4.814115418     1.161722005    -0.020235331
   3    H       -6.764782428     1.704528655    -0.821078574
   4    H       -6.640258967     1.571262534     0.957450248
   5    H       -6.640650219     0.101982061    -0.038434145
   6    H       -4.453261472     2.098447385     0.053073790
   7    H       -4.453118606     0.744229013    -0.861893879


           Empirical Formula: C H5 N  =     7 atoms



      MOLECULAR POINT GROUP   :   Cs  


                  EIGENVALUES  
 -35.28399 -23.67069 -17.04092 -15.48140 -14.18590 -12.75637  -9.48213   3.57189
   5.36689   5.43418   6.07530   6.56424   7.09416


              NET ATOMIC CHARGES AND DIPOLE CONTRIBUTIONS

  ATOM NO.   TYPE          CHARGE      No. of ELECS.   s-Pop       p-Pop       
    1          C          -0.268915        4.2689     1.05872     3.21019
    2          N          -0.620999        5.6210     1.63820     3.98279
    3          H           0.111854        0.8881     0.88815
    4          H           0.146966        0.8530     0.85303
    5          H           0.146924        0.8531     0.85308
    6          H           0.242090        0.7579     0.75791
    7          H           0.242081        0.7579     0.75792
 DIPOLE           X         Y         Z       TOTAL
 POINT-CHG.    -0.879     0.455    -0.673     1.197
 HYBRID         0.002     0.561    -0.830     1.001
 SUM           -0.877     1.015    -1.503     2.015


          ATOMIC ORBITAL ELECTRON POPULATIONS

     Atom    s        px        py        pz   
    1  C   1.05872   0.89213   1.16606   1.15200
    2  N   1.63820   1.13431   1.33713   1.51135
    3  H   0.88815
    4  H   0.85303
    5  H   0.85308
    6  H   0.75791
    7  H   0.75792
 *******************************************************************************
 **                                                                           **
 **                              MOPAC v22.1.0                                **
 **                                                                           **
 *******************************************************************************
 **          Digital Object Identifier (DOI): 10.5281/zenodo.6511958          **
 **    Visit the DOI location for information on how to cite this program.    **
 *******************************************************************************

                              PM7 CALCULATION RESULTS

 *******************************************************************************
 *  CALCULATION DONE:                                Fri Jan 26 10:45:10 2024  *
 *  PM7        - The PM7 Hamiltonian to be used
 *  SINGLET    - SPIN STATE DEFINED AS A SINGLET
 *
 *
 *
 *                 CHARGE ON SYSTEM = 0
 *
 *
 *
 *  OLDGEO     - PREVIOUS GEOMETRY TO BE USED
 *  PRECISE    - TIGHTER CRITERIA TO BE USED
 *  T=         - A TIME OF 172800.0 SECONDS REQUESTED
 *  DUMP=N     - RESTART FILE WRITTEN EVERY 7200.0 SECONDS REQUESTED
 *  THERMO     - THERMODYNAMIC QUANTITIES TO BE CALCULATED
 *******************************************************************************
OLDGEO CHARGE=0 SINGLET PRECISE PM7 THERMO
 anilin, PM7

   ATOM   CHEMICAL          X               Y               Z
  NUMBER   SYMBOL      (ANGSTROMS)     (ANGSTROMS)     (ANGSTROMS)
 
     1       C         -6.29099392  *   1.14767594  *   0.00043936  *
     2       N         -4.81411542  *   1.16172201  *  -0.02023533  *
     3       H         -6.76478243  *   1.70452865  *  -0.82107857  *
     4       H         -6.64025897  *   1.57126253  *   0.95745025  *
     5       H         -6.64065022  *   0.10198206  *  -0.03843415  *
     6       H         -4.45326147  *   2.09844739  *   0.05307379  *
     7       H         -4.45311861  *   0.74422901  *  -0.86189388  *
 


          CARTESIAN COORDINATES 

    NO.       ATOM           X           Y           Z

     1         C         -6.2910      1.1477      0.0004
     2         N         -4.8141      1.1617     -0.0202
     3         H         -6.7648      1.7045     -0.8211
     4         H         -6.6403      1.5713      0.9575
     5         H         -6.6407      0.1020     -0.0384
     6         H         -4.4533      2.0984      0.0531
     7         H         -4.4531      0.7442     -0.8619

 General Reference for PM7:
 "Optimization of Parameters for Semiempirical Methods VI: More Modifications to the 
 NDDO Approximations and Re-optimization of Parameters", J. J. P. Stewart, J. Mol. Mod., 1:32, 19 (2013)
 https://link.springer.com/article/10.1007/s00894-012-1667-x

           Empirical Formula: C H5 N  =     7 atoms



      MOLECULAR POINT GROUP   :   Cs  


 SINGLET STATE CALCULATION


      RHF CALCULATION, NO. OF DOUBLY OCCUPIED LEVELS = 7



          HEAT OF FORMATION =      -3.436078 KCALS/MOLE


          CARTESIAN COORDINATE DERIVATIVES

   NUMBER  ATOM         X            Y            Z

     1       C      0.019398     0.000781    -0.007922
     2       N      0.006498    -0.005459     0.007669
     3       H     -0.006697     0.007093    -0.002142
     4       H      0.012189    -0.004268     0.002649
     5       H     -0.018077     0.001509    -0.006320
     6       H     -0.007909     0.004929     0.003279
     7       H     -0.005402    -0.004584     0.002786
 


          GRADIENT NORM =   0.03699

          MOLECULAR WEIGHT =   31.06



          ROTATIONAL CONSTANTS IN CM(-1)

          A =    3.44543642   B =    0.74779992   C =    0.71680113



           PRINCIPAL MOMENTS OF INERTIA IN UNITS OF 10**(-40)*GRAM-CM**2

          A =        8.1246   B =       37.4335   C =       39.0523


          ORIENTATION OF MOLECULE IN FORCE CALCULATION

    NO.       ATOM         X         Y         Z

     1          C      -0.7479   -0.0266    0.0000
     2          N       0.7292   -0.0266    0.0000
     3          H      -1.2048    0.9738    0.0000
     4          H      -1.1064   -0.5751    0.8876
     5          H      -1.1069   -0.5751   -0.8873
     6          H       1.0979    0.4322    0.8165
     7          H       1.0980    0.4297   -0.8178


    FIRST DERIVATIVES WILL BE USED IN THE CALCULATION OF SECOND DERIVATIVES

          ESTIMATED TIME TO COMPLETE CALCULATION =        0.66 SECONDS

    FOR POINT-GROUP Cs   THERE ARE   2 UNIQUE SYMMETRY FUNCTIONS.

 STEP:   1 TIME =     0.02 SECS, INTEGRAL =      0.02 TIME LEFT: 172799.97
 STEP:   2 TIME =     0.02 SECS, INTEGRAL =      0.05 TIME LEFT: 172799.95
 STEP:   3 TIME =     0.02 SECS, INTEGRAL =      0.07 TIME LEFT: 172799.92
 STEP:   4 TIME =     0.02 SECS, INTEGRAL =      0.09 TIME LEFT: 172799.90
 STEP:   5 TIME =     0.02 SECS, INTEGRAL =      0.12 TIME LEFT: 172799.88
 STEP:   6 TIME =     0.03 SECS, INTEGRAL =      0.14 TIME LEFT: 172799.85
 STEP:   7 TIME =     0.02 SECS, INTEGRAL =      0.17 TIME LEFT: 172799.82
 STEP:   8 TIME =     0.02 SECS, INTEGRAL =      0.19 TIME LEFT: 172799.80
 STEP:   9 TIME =     0.02 SECS, INTEGRAL =      0.21 TIME LEFT: 172799.78
 STEP:  10 TIME =     0.02 SECS, INTEGRAL =      0.23 TIME LEFT: 172799.76
 STEP:  11 TIME =     0.03 SECS, INTEGRAL =      0.26 TIME LEFT: 172799.73
 STEP:  12 TIME =     0.02 SECS, INTEGRAL =      0.29 TIME LEFT: 172799.71
 STEP:  13                       INTEGRAL =      0.29 TIME LEFT: 172799.71
 STEP:  14                       INTEGRAL =      0.29 TIME LEFT: 172799.71
 STEP:  15                       INTEGRAL =      0.29 TIME LEFT: 172799.71
 STEP:  16 TIME =     0.03 SECS, INTEGRAL =      0.31 TIME LEFT: 172799.68
 STEP:  17 TIME =     0.02 SECS, INTEGRAL =      0.34 TIME LEFT: 172799.66
 STEP:  18 TIME =     0.03 SECS, INTEGRAL =      0.37 TIME LEFT: 172799.62
 STEP:  19                       INTEGRAL =      0.37 TIME LEFT: 172799.62
 STEP:  20                       INTEGRAL =      0.37 TIME LEFT: 172799.62
 STEP:  21                       INTEGRAL =      0.37 TIME LEFT: 172799.62

(To convert to Hartree/Bohr^2, multiply by (10^(-21) x N x a0^2)/(4.184 x 627.51) =  0.0642)


           FORCE MATRIX IN MILLIDYNES/ANGSTROM


                  C  1       N  2       H  3       H  4       H  5       H  6
 ------------------------------------------------------------------------------
     C    1  11.810130
     N    2   4.239080  10.915624
     H    3   3.293641   0.810451   4.136551
     H    4   3.356287   0.807688   0.463788   4.189510
     H    5   3.356062   0.807179   0.463480   0.452452   4.189510
     H    6   0.884659   3.914600   0.029278   0.038527   0.089169   4.574440
     H    7   0.884815   3.914751   0.029197   0.089155   0.038496   0.694018


                  H  7
 ------------------
     H    7   4.574440


          HEAT OF FORMATION =      -3.436078 KCALS/MOLE

          ZERO POINT ENERGY      36.163 KCAL/MOL


           NORMAL COORDINATE ANALYSIS (Total motion = 1 Angstrom)


   Root No.       1         2         3         4         5         6         7         8

                 1 A"      1 A'      2 A"      2 A'      3 A'      4 A'      3 A"      4 A"  

                 218.3     975.1    1031.6    1131.5    1230.8    1290.1    1296.6    1367.1
  
           1   -0.0000   -0.0221    0.0000    0.0326    0.1500    0.0022    0.0000   -0.0000
           2    0.0000   -0.0175    0.0000   -0.0629    0.0282   -0.0327   -0.0001   -0.0001
           3    0.0040    0.0000    0.0377    0.0001   -0.0000    0.0001   -0.0401   -0.0501
           4    0.0000    0.0408    0.0000   -0.0344   -0.1206   -0.0016    0.0000   -0.0000
           5   -0.0000   -0.0313    0.0000    0.0465   -0.0409   -0.0074    0.0000    0.0001
           6   -0.0191    0.0001    0.0005   -0.0000    0.0001   -0.0000    0.0027    0.0494
           7    0.0000    0.1494   -0.0000    0.3071    0.0212   -0.1754   -0.0000    0.0000
           8   -0.0002    0.0666   -0.0002    0.1007   -0.0161   -0.0915    0.0006    0.0000
           9   -0.1520   -0.0001   -0.1133   -0.0002    0.0000    0.0002    0.3912    0.0013
          10   -0.0093   -0.0941   -0.2265   -0.1288    0.1094    0.0896   -0.1457    0.1604
          11    0.1340    0.0592   -0.0233    0.1013   -0.0257    0.2827    0.1949   -0.0058
          12    0.0797    0.0027   -0.0971    0.0230   -0.0166    0.2193    0.0388    0.0258
          13    0.0093   -0.0940    0.2265   -0.1288    0.1094    0.0896    0.1458   -0.1604
          14   -0.1338    0.0592    0.0230    0.1012   -0.0257    0.2821   -0.1948    0.0059
          15    0.0801   -0.0029   -0.0971   -0.0234    0.0167   -0.2201    0.0394    0.0257
          16    0.0143   -0.1329    0.1590    0.0197   -0.1759   -0.0042    0.0329    0.2734
          17   -0.2332    0.2293   -0.0207   -0.1001    0.1498    0.0096   -0.0065   -0.0502
          18    0.1053   -0.0350   -0.0743    0.0372   -0.0304   -0.0060   -0.0145   -0.0714
          19   -0.0143   -0.1328   -0.1590    0.0197   -0.1759   -0.0042   -0.0329   -0.2734
          20    0.2335    0.2294    0.0206   -0.1002    0.1499    0.0096    0.0065    0.0500
          21    0.1046    0.0344   -0.0744   -0.0368    0.0299    0.0060   -0.0145   -0.0716


   Root No.       9        10        11        12        13        14        15

                 5 A'      6 A'      7 A'      5 A"      8 A'      6 A"      9 A'  

                1407.0    1663.9    2651.2    2658.7    2759.9    2784.4    2830.3
  
           1   -0.0517   -0.0063    0.0048    0.0000    0.0201    0.0000    0.0072
           2    0.0004   -0.0138   -0.0482   -0.0001    0.0052   -0.0000    0.0049
           3    0.0000    0.0000    0.0001   -0.0483   -0.0000   -0.0077   -0.0000
           4   -0.0131   -0.0395    0.0011    0.0000    0.0038    0.0000    0.0208
           5   -0.0015   -0.0110   -0.0017    0.0000   -0.0016   -0.0001    0.0202
           6   -0.0000    0.0000   -0.0000    0.0033   -0.0000   -0.0464   -0.0000
           7    0.2661    0.0318   -0.2235   -0.0000   -0.1081   -0.0000   -0.0064
           8    0.1366    0.0090    0.4495   -0.0001    0.2422   -0.0000    0.0118
           9   -0.0001   -0.0000   -0.0006   -0.0269   -0.0001   -0.0030    0.0000
          10    0.2804   -0.0252    0.0804   -0.1523   -0.1056   -0.0209   -0.0145
          11   -0.0594   -0.0031    0.0791   -0.2108   -0.1550   -0.0239   -0.0207
          12    0.0989    0.0052   -0.1743    0.3188    0.2538    0.0357    0.0356
          13    0.2804   -0.0252    0.0804    0.1523   -0.1057    0.0209   -0.0145
          14   -0.0595   -0.0031    0.0797    0.2117   -0.1553    0.0240   -0.0207
          15   -0.0988   -0.0052    0.1741    0.3182   -0.2536    0.0356   -0.0356
          16   -0.0144    0.3214   -0.0049   -0.0166    0.0131    0.1801   -0.1702
          17   -0.0010    0.1572   -0.0051   -0.0233    0.0139    0.1879   -0.1552
          18   -0.0030   -0.2375   -0.0146   -0.0402    0.0344    0.3342   -0.3640
          19   -0.0145    0.3214   -0.0049    0.0166    0.0131   -0.1801   -0.1702
          20   -0.0008    0.1579   -0.0050    0.0233    0.0143   -0.1869   -0.1541
          21    0.0030    0.2371    0.0146   -0.0402   -0.0342    0.3348    0.3645


           MASS-WEIGHTED COORDINATE ANALYSIS (NORMAL COORDINATES)


   Root No.       1         2         3         4         5         6         7         8

                 1 A"      1 A'      2 A"      2 A'      3 A'      4 A'      3 A"      4 A"  

                 218.3     975.1    1031.6    1131.5    1230.8    1290.1    1296.6    1367.1
  
           1   -0.0000   -0.1552    0.0000    0.2095    0.6483    0.0133    0.0000   -0.0000
           2    0.0001   -0.1232    0.0003   -0.4037    0.1217   -0.1979   -0.0004   -0.0004
           3    0.0306    0.0001    0.2806    0.0005   -0.0002    0.0004   -0.2543   -0.3258
           4    0.0000    0.3103    0.0000   -0.2384   -0.5628   -0.0101    0.0000   -0.0000
           5   -0.0002   -0.2379    0.0002    0.3225   -0.1907   -0.0485    0.0001    0.0004
           6   -0.1562    0.0004    0.0043   -0.0003    0.0003   -0.0000    0.0185    0.3473
           7    0.0000    0.3046   -0.0001    0.5712    0.0266   -0.3076   -0.0000    0.0000
           8   -0.0005    0.1358   -0.0004    0.1873   -0.0202   -0.1604    0.0010    0.0000
           9   -0.3328   -0.0002   -0.2445   -0.0003    0.0000    0.0003    0.7185    0.0025
          10   -0.0205   -0.1918   -0.4887   -0.2396    0.1370    0.1572   -0.2677    0.3024
          11    0.2936    0.1206   -0.0503    0.1884   -0.0322    0.4959    0.3579   -0.0110
          12    0.1745    0.0054   -0.2095    0.0428   -0.0208    0.3846    0.0713    0.0485
          13    0.0205   -0.1917    0.4888   -0.2395    0.1370    0.1571    0.2677   -0.3024
          14   -0.2930    0.1206    0.0496    0.1883   -0.0322    0.4948   -0.3578    0.0112
          15    0.1754   -0.0059   -0.2096   -0.0435    0.0209   -0.3860    0.0723    0.0485
          16    0.0314   -0.2709    0.3431    0.0366   -0.2202   -0.0073    0.0604    0.5154
          17   -0.5107    0.4674   -0.0447   -0.1861    0.1876    0.0168   -0.0120   -0.0947
          18    0.2306   -0.0715   -0.1603    0.0692   -0.0381   -0.0106   -0.0267   -0.1346
          19   -0.0314   -0.2708   -0.3432    0.0367   -0.2202   -0.0074   -0.0604   -0.5153
          20    0.5113    0.4676    0.0444   -0.1863    0.1877    0.0168    0.0120    0.0942
          21    0.2290    0.0701   -0.1605   -0.0685    0.0375    0.0105   -0.0267   -0.1349


   Root No.       9        10        11        12        13        14        15

                 5 A'      6 A'      7 A'      5 A"      8 A'      6 A"      9 A'  

                1407.0    1663.9    2651.2    2658.7    2759.9    2784.4    2830.3
  
           1   -0.3218   -0.0346    0.0275    0.0000    0.1318    0.0000    0.0401
           2    0.0028   -0.0757   -0.2747   -0.0005    0.0343   -0.0001    0.0269
           3    0.0000    0.0001    0.0005   -0.2731   -0.0000   -0.0424   -0.0000
           4   -0.0877   -0.2336    0.0067    0.0000    0.0271    0.0000    0.1248
           5   -0.0103   -0.0651   -0.0106    0.0001   -0.0114   -0.0004    0.1211
           6   -0.0000    0.0001   -0.0001    0.0200   -0.0001   -0.2757   -0.0002
           7    0.4795    0.0504   -0.3691   -0.0000   -0.2051   -0.0000   -0.0104
           8    0.2462    0.0142    0.7422   -0.0001    0.4593   -0.0000    0.0189
           9   -0.0001   -0.0000   -0.0010   -0.0442   -0.0002   -0.0048    0.0000
          10    0.5052   -0.0400    0.1328   -0.2497   -0.2003   -0.0333   -0.0233
          11   -0.1070   -0.0049    0.1307   -0.3457   -0.2940   -0.0380   -0.0332
          12    0.1781    0.0083   -0.2878    0.5227    0.4813    0.0569    0.0572
          13    0.5052   -0.0400    0.1327    0.2498   -0.2004    0.0333   -0.0233
          14   -0.1072   -0.0049    0.1316    0.3471   -0.2946    0.0382   -0.0333
          15   -0.1780   -0.0083    0.2874    0.5216   -0.4809    0.0568   -0.0571
          16   -0.0260    0.5099   -0.0080   -0.0273    0.0248    0.2869   -0.2733
          17   -0.0019    0.2493   -0.0084   -0.0383    0.0264    0.2993   -0.2493
          18   -0.0053   -0.3768   -0.0240   -0.0658    0.0652    0.5323   -0.5846
          19   -0.0261    0.5099   -0.0081    0.0272    0.0248   -0.2869   -0.2733
          20   -0.0015    0.2504   -0.0083    0.0382    0.0270   -0.2978   -0.2475
          21    0.0055    0.3761    0.0240   -0.0659   -0.0649    0.5332    0.5854


          DESCRIPTION OF VIBRATIONS


 VIBRATION          1    1A"         ATOM PAIR     ENERGY CONTRIBUTION    RADIAL
 FREQUENCY           218.32         N 2 -- H 7         +28.0% (216.0%)      2.1%
 TRANSITION DIPOLE   0.6306         N 2 -- H 6         +28.0% (216.0%)      2.1%
 TRAVEL (Ang.)       0.0000         C 1 -- H 3         +14.1% (153.5%)      0.0%
 REDUCED MASS        0.2482         C 1 -- H 4         +13.6% (150.5%)      0.5%
 EFFECTIVE MASS      4.6302         C 1 -- H 5         +13.6% (150.5%)      0.5%
 FORCE CONSTANT      0.0070

 VIBRATION          2    1A'         ATOM PAIR     ENERGY CONTRIBUTION    RADIAL
 FREQUENCY           975.14         N 2 -- H 7         +27.5% ( 61.7%)      0.3%
 TRANSITION DIPOLE   1.1771         N 2 -- H 6         +27.5% ( 61.7%)      0.3%
 TRAVEL (Ang.)       0.3574         C 1 -- H 3         +17.4% ( 49.1%)      0.7%
 REDUCED MASS        0.5414         C 1 -- N 2         +12.6% ( 41.8%)     94.3%
 EFFECTIVE MASS      3.2630
 FORCE CONSTANT      0.3033

 VIBRATION          3    2A"         ATOM PAIR     ENERGY CONTRIBUTION    RADIAL
 FREQUENCY          1031.62         C 1 -- H 5         +28.6% ( 69.3%)      9.2%
 TRANSITION DIPOLE   0.4182         C 1 -- H 4         +28.6% ( 69.3%)      9.2%
 TRAVEL (Ang.)       0.4791         N 2 -- H 7         +14.6% ( 49.6%)      0.5%
 REDUCED MASS        0.2847         N 2 -- H 6         +14.6% ( 49.5%)      0.5%
 EFFECTIVE MASS      1.8114
 FORCE CONSTANT      0.1785

 VIBRATION          4    2A'         ATOM PAIR     ENERGY CONTRIBUTION    RADIAL
 FREQUENCY          1131.51         C 1 -- H 3         +32.8% ( 71.1%)     31.2%
 TRANSITION DIPOLE   0.2238         C 1 -- H 4         +19.0% ( 54.2%)      2.4%
 TRAVEL (Ang.)       0.2406         C 1 -- H 5         +19.0% ( 54.2%)      2.3%
 REDUCED MASS        1.0295         C 1 -- N 2         +17.2% ( 51.5%)     27.6%
 EFFECTIVE MASS      4.6429
 FORCE CONSTANT      0.7766

 VIBRATION          5    3A'         ATOM PAIR     ENERGY CONTRIBUTION    RADIAL
 FREQUENCY          1230.84         C 1 -- N 2         +36.1% ( 88.8%)     93.8%
 TRANSITION DIPOLE   0.2767         C 1 -- H 3         +13.8% ( 54.8%)      4.1%
 TRAVEL (Ang.)       0.1165         C 1 -- H 4         +13.1% ( 53.5%)     17.9%
 REDUCED MASS        4.0355         C 1 -- H 5         +13.1% ( 53.5%)     17.9%
 EFFECTIVE MASS     10.3760         N 2 -- H 6         +11.9% ( 51.0%)     27.2%
 FORCE CONSTANT      3.6021         N 2 -- H 7         +11.9% ( 51.0%)     27.2%

 VIBRATION          6    4A'         ATOM PAIR     ENERGY CONTRIBUTION    RADIAL
 FREQUENCY          1290.12         C 1 -- H 5         +41.6% ( 54.5%)      1.0%
 TRANSITION DIPOLE   0.5340         C 1 -- H 4         +41.6% ( 54.5%)      1.1%
 TRAVEL (Ang.)       0.3678         C 1 -- H 3         +13.7% ( 31.3%)     26.9%
 REDUCED MASS        0.3863         C 1 -- N 2          +2.8% ( 14.3%)      2.4%
 EFFECTIVE MASS      1.3401
 FORCE CONSTANT      0.3788

 VIBRATION          7    3A"         ATOM PAIR     ENERGY CONTRIBUTION    RADIAL
 FREQUENCY          1296.56         C 1 -- H 3         +51.1% ( 62.6%)      0.0%
 TRANSITION DIPOLE   0.3885         C 1 -- H 5         +21.3% ( 40.5%)      9.7%
 TRAVEL (Ang.)       0.3590         C 1 -- H 4         +21.3% ( 40.5%)      9.5%
 REDUCED MASS        0.4035         C 1 -- N 2          +4.8% ( 19.2%)      0.0%
 EFFECTIVE MASS      1.5546
 FORCE CONSTANT      0.3996

 VIBRATION          8    4A"         ATOM PAIR     ENERGY CONTRIBUTION    RADIAL
 FREQUENCY          1367.10         N 2 -- H 6         +31.4% ( 60.5%)     11.9%
 TRANSITION DIPOLE   0.1407         N 2 -- H 7         +31.4% ( 60.5%)     11.9%
 TRAVEL (Ang.)       0.3052         C 1 -- H 5         +10.9% ( 35.7%)     18.8%
 REDUCED MASS        0.5297         C 1 -- H 4         +10.9% ( 35.7%)     18.7%
 EFFECTIVE MASS      3.0487         C 1 -- N 2         +10.8% ( 35.5%)      0.0%
 FORCE CONSTANT      0.5833

 VIBRATION          9    5A'         ATOM PAIR     ENERGY CONTRIBUTION    RADIAL
 FREQUENCY          1407.04         C 1 -- H 4         +32.0% ( 55.1%)      0.7%
 TRANSITION DIPOLE   0.3688         C 1 -- H 5         +32.0% ( 55.1%)      0.7%
 TRAVEL (Ang.)       0.3487         C 1 -- H 3         +30.4% ( 53.7%)      1.8%
 REDUCED MASS        0.3941         C 1 -- N 2          +4.8% ( 21.3%)     99.7%
 EFFECTIVE MASS      1.8321
 FORCE CONSTANT      0.4597

 VIBRATION         10    6A'         ATOM PAIR     ENERGY CONTRIBUTION    RADIAL
 FREQUENCY          1663.93         N 2 -- H 7         +48.0% ( 60.0%)      1.5%
 TRANSITION DIPOLE   0.3961         N 2 -- H 6         +48.0% ( 60.0%)      1.5%
 TRAVEL (Ang.)       0.2896         C 1 -- N 2          +2.7% ( 14.3%)     99.7%
 REDUCED MASS        0.4831         C 1 -- H 3          +0.6% (  6.4%)     14.1%
 EFFECTIVE MASS      1.5176
 FORCE CONSTANT      0.7881

 VIBRATION         11    7A'         ATOM PAIR     ENERGY CONTRIBUTION    RADIAL
 FREQUENCY          2651.17         C 1 -- H 3         +72.3% ( 87.6%)     99.7%
 TRANSITION DIPOLE   0.4078         C 1 -- H 5         +13.4% ( 37.6%)     84.4%
 TRAVEL (Ang.)       0.2106         C 1 -- H 4         +13.4% ( 37.6%)     84.6%
 REDUCED MASS        0.5735         C 1 -- N 2          +0.9% (  9.6%)      0.6%
 EFFECTIVE MASS      1.4418
 FORCE CONSTANT      2.3749

 VIBRATION         12    5A"         ATOM PAIR     ENERGY CONTRIBUTION    RADIAL
 FREQUENCY          2658.68         C 1 -- H 5         +48.4% ( 71.9%)     97.9%
 TRANSITION DIPOLE   0.5297         C 1 -- H 4         +48.4% ( 71.9%)     97.9%
 TRAVEL (Ang.)       0.2289         C 1 -- N 2          +0.9% ( 10.1%)      0.0%
 REDUCED MASS        0.4842         C 1 -- H 3          +0.9% (  9.5%)      0.0%
 EFFECTIVE MASS      1.4403
 FORCE CONSTANT      2.0166

 VIBRATION         13    8A'         ATOM PAIR     ENERGY CONTRIBUTION    RADIAL
 FREQUENCY          2759.86         C 1 -- H 4         +36.8% ( 58.2%)     96.4%
 TRANSITION DIPOLE   0.2187         C 1 -- H 5         +36.8% ( 58.2%)     96.4%
 TRAVEL (Ang.)       0.2732         C 1 -- H 3         +25.1% ( 48.1%)     94.3%
 REDUCED MASS        0.3274         N 2 -- H 6          +0.6% (  7.3%)     84.4%
 EFFECTIVE MASS      1.1178
 FORCE CONSTANT      1.4693

 VIBRATION         14    6A"         ATOM PAIR     ENERGY CONTRIBUTION    RADIAL
 FREQUENCY          2784.45         N 2 -- H 6         +49.0% ( 71.5%)     97.6%
 TRANSITION DIPOLE   0.7200         N 2 -- H 7         +49.0% ( 71.5%)     97.6%
 TRAVEL (Ang.)       0.2203         C 1 -- N 2          +0.7% (  8.8%)      0.0%
 REDUCED MASS        0.4989         C 1 -- H 4          +0.6% (  8.0%)     96.7%
 EFFECTIVE MASS      1.4931
 FORCE CONSTANT      2.2791

 VIBRATION         15    9A'         ATOM PAIR     ENERGY CONTRIBUTION    RADIAL
 FREQUENCY          2830.28         N 2 -- H 7         +49.3% ( 68.8%)     97.6%
 TRANSITION DIPOLE   0.5946         N 2 -- H 6         +49.3% ( 68.8%)     97.6%
 TRAVEL (Ang.)       0.2241         C 1 -- H 4          +0.5% (  7.2%)     85.4%
 REDUCED MASS        0.4746         C 1 -- H 5          +0.5% (  7.2%)     85.4%
 EFFECTIVE MASS      1.2060
 FORCE CONSTANT      2.2399

      SYMMETRY NUMBER FOR POINT-GROUP Cs  =  1


          SYSTEM IS A GROUND STATE



 anilin, PM7


          MOLECULE IS NOT LINEAR

          THERE ARE 15 GENUINE VIBRATIONS IN THIS SYSTEM
          THIS THERMODYNAMICS CALCULATION IS LIMITED TO
          MOLECULES WHICH HAVE NO INTERNAL ROTATIONS




                    CALCULATED THERMODYNAMIC PROPERTIES
                                          *
   TEMP. (K)   PARTITION FUNCTION   H.O.F.    ENTHALPY  HEAT CAPACITY ENTROPY
                                   KCAL/MOL   CAL/MOLE    CAL/K/MOL  CAL/K/MOL


 298.00  VIB.     0.1581D+01                   428.5875     3.5679     2.3484
         ROT.     0.3888D+04                   888.2803     2.9808    19.4062
         INT.     0.6146D+04                  1316.8678     6.5487    21.7546
         TRA.     0.1673D+27                  1480.4672     4.9680    36.2302
         TOT.                       -3.436    2797.3350    11.5167    57.9848

 200.00  VIB.     0.1265D+01                   170.6531     1.8904     1.3209
         ROT.     0.2138D+04                   596.1613     2.9808    18.2175
         INT.     0.2705D+04                   766.8144     4.8712    19.5384
         TRA.     0.9200D+26                   993.6021     4.9680    34.2490
         TOT.                       -4.473    1760.4165     9.8392    53.7874

 210.00  VIB.     0.1293D+01                   190.1319     2.0073     1.4159
         ROT.     0.2300D+04                   625.9693     2.9808    18.3630
         INT.     0.2973D+04                   816.1012     4.9881    19.7789
         TRA.     0.9899D+26                  1043.2822     4.9680    34.4914
         TOT.                       -4.374    1859.3835     9.9561    54.2703

 220.00  VIB.     0.1321D+01                   210.8384     2.1361     1.5122
         ROT.     0.2466D+04                   655.7774     2.9808    18.5016
         INT.     0.3259D+04                   866.6158     5.1169    20.0138
         TRA.     0.1061D+27                  1092.9623     4.9680    34.7225
         TOT.                       -4.274    1959.5782    10.0849    54.7364

 230.00  VIB.     0.1351D+01                   232.8965     2.2777     1.6102
         ROT.     0.2636D+04                   685.5855     2.9808    18.6341
         INT.     0.3561D+04                   918.4820     5.2585    20.2444
         TRA.     0.1135D+27                  1142.6424     4.9680    34.9434
         TOT.                       -4.172    2061.1244    10.2265    55.1877

 240.00  VIB.     0.1381D+01                   256.4348     2.4322     1.7104
         ROT.     0.2810D+04                   715.3935     2.9808    18.7610
         INT.     0.3881D+04                   971.8283     5.4130    20.4714
         TRA.     0.1209D+27                  1192.3226     4.9680    35.1548
         TOT.                       -4.069    2164.1509    10.3810    55.6262

 250.00  VIB.     0.1413D+01                   281.5831     2.5996     1.8130
         ROT.     0.2987D+04                   745.2016     2.9808    18.8827
         INT.     0.4220D+04                  1026.7846     5.5804    20.6957
         TRA.     0.1286D+27                  1242.0027     4.9680    35.3576
         TOT.                       -3.965    2268.7873    10.5484    56.0533

 260.00  VIB.     0.1445D+01                   308.4694     2.7797     1.9184
         ROT.     0.3168D+04                   775.0097     2.9808    18.9996
         INT.     0.4579D+04                  1083.4790     5.7605    20.9180
         TRA.     0.1364D+27                  1291.6828     4.9680    35.5525
         TOT.                       -3.858    2375.1618    10.7285    56.4705

 270.00  VIB.     0.1479D+01                   337.2175     2.9719     2.0269
         ROT.     0.3353D+04                   804.8177     2.9808    19.1121
         INT.     0.4959D+04                  1142.0352     5.9527    21.1390
         TRA.     0.1443D+27                  1341.3629     4.9680    35.7400
         TOT.                       -3.750    2483.3981    10.9207    56.8790

 280.00  VIB.     0.1514D+01                   367.9449     3.1754     2.1386
         ROT.     0.3541D+04                   834.6258     2.9808    19.2205
         INT.     0.5362D+04                  1202.5707     6.1562    21.3591
         TRA.     0.1524D+27                  1391.0430     4.9680    35.9206
         TOT.                       -3.640    2593.6137    11.1243    57.2798

 290.00  VIB.     0.1551D+01                   400.7616     3.3896     2.2538
         ROT.     0.3732D+04                   864.4339     2.9808    19.3251
         INT.     0.5788D+04                  1265.1954     6.3704    21.5789
         TRA.     0.1606D+27                  1440.7231     4.9680    36.0950
         TOT.                       -3.527    2705.9185    11.3384    57.6738

 300.00  VIB.     0.1589D+01                   435.7687     3.6134     2.3724
         ROT.     0.3927D+04                   894.2419     2.9808    19.4261
         INT.     0.6239D+04                  1330.0106     6.5942    21.7986
         TRA.     0.1690D+27                  1490.4032     4.9680    36.2634
         TOT.                       -3.413    2820.4138    11.5622    58.0620

 310.00  VIB.     0.1628D+01                   473.0582     3.8459     2.4947
         ROT.     0.4125D+04                   924.0500     2.9808    19.5239
         INT.     0.6716D+04                  1397.1082     6.8267    22.0186
         TRA.     0.1775D+27                  1540.0833     4.9680    36.4263
         TOT.                       -3.296    2937.1915    11.7947    58.4449

 320.00  VIB.     0.1669D+01                   512.7126     4.0862     2.6206
         ROT.     0.4326D+04                   953.8580     2.9808    19.6185
         INT.     0.7222D+04                  1466.5706     7.0670    22.2391
         TRA.     0.1862D+27                  1589.7634     4.9680    36.5840
         TOT.                       -3.177    3056.3340    12.0350    58.8231

 330.00  VIB.     0.1712D+01                   554.8045     4.3333     2.7501
         ROT.     0.4530D+04                   983.6661     2.9808    19.7102
         INT.     0.7758D+04                  1538.4706     7.3141    22.4603
         TRA.     0.1950D+27                  1639.4435     4.9680    36.7369
         TOT.                       -3.055    3177.9141    12.2821    59.1972

 340.00  VIB.     0.1757D+01                   599.3973     4.5862     2.8832
         ROT.     0.4738D+04                  1013.4742     2.9808    19.7992
         INT.     0.8326D+04                  1612.8715     7.5670    22.6824
         TRA.     0.2039D+27                  1689.1236     4.9680    36.8852
         TOT.                       -2.931    3301.9951    12.5350    59.5676

 350.00  VIB.     0.1804D+01                   646.5452     4.8441     3.0198
         ROT.     0.4948D+04                  1043.2822     2.9808    19.8856
         INT.     0.8927D+04                  1689.8275     7.8249    22.9055
         TRA.     0.2130D+27                  1738.8037     4.9680    37.0292
         TOT.                       -2.805    3428.6312    12.7930    59.9347

 360.00  VIB.     0.1853D+01                   696.2938     5.1062     3.1600
         ROT.     0.5162D+04                  1073.0903     2.9808    19.9696
         INT.     0.9566D+04                  1769.3841     8.0870    23.1296
         TRA.     0.2222D+27                  1788.4838     4.9680    37.1692
         TOT.                       -2.676    3557.8680    13.0550    60.2987

 370.00  VIB.     0.1904D+01                   748.6806     5.3716     3.3035
         ROT.     0.5379D+04                  1102.8984     2.9808    20.0513
         INT.     0.1024D+05                  1851.5789     8.3524    23.3547
         TRA.     0.2315D+27                  1838.1639     4.9680    37.3053
         TOT.                       -2.544    3689.7429    13.3204    60.6601

 380.00  VIB.     0.1958D+01                   803.7352     5.6397     3.4503
         ROT.     0.5598D+04                  1132.7064     2.9808    20.1308
         INT.     0.1096D+05                  1936.4417     8.6205    23.5810
         TRA.     0.2409D+27                  1887.8440     4.9680    37.4378
         TOT.                       -2.409    3824.2857    13.5885    61.0188

 390.00  VIB.     0.2014D+01                   861.4808     5.9097     3.6003
         ROT.     0.5821D+04                  1162.5145     2.9808    20.2082
         INT.     0.1172D+05                  2023.9953     8.8905    23.8085
         TRA.     0.2505D+27                  1937.5242     4.9680    37.5668
         TOT.                       -2.272    3961.5194    13.8585    61.3753

 400.00  VIB.     0.2073D+01                   921.9338     6.1811     3.7533
         ROT.     0.6046D+04                  1192.3226     2.9808    20.2837
         INT.     0.1253D+05                  2114.2563     9.1619    24.0370
         TRA.     0.2602D+27                  1987.2043     4.9680    37.6926
         TOT.                       -2.132    4101.4606    14.1299    61.7296

   *: NOTE: HEATS OF FORMATION ARE RELATIVE TO THE
            ELEMENTS IN THEIR STANDARD STATE AT 298K
              (=  Standard Enthalpy of Formation).

            Hvib:  Zero-point energy is not included.
                   frequencies of less than zero cm-1 are not included.
            Hrot = (3/2)RT
            Htra = (3/2)RT + pV = (5/2)RT

            Heat capacity is Cp, not Cv

          For more information, see: HTTP://OpenMOPAC.net/Manual/thermochemistry.html


           FORCE CONSTANT IN CARTESIAN COORDINATES (Millidynes/A)

    ATOM   CHEMICAL       X               Y               Z
   NUMBER   SYMBOL  FORCE CONSTANT  FORCE CONSTANT  FORCE CONSTANT

      1       C        7.606783        6.171791        6.593654
      2       N        7.768781        3.113267        6.763642
      3       H        1.428461        3.389796        0.565093
      4       H        1.257002        1.398669        2.793032
      5       H        1.256970        1.406795        2.784938
      6       H        1.627646        1.020485        3.250191
      7       H        1.627682        1.012964        3.257676

 **********************
 *                    *
 * JOB ENDED NORMALLY *
 *                    *
 **********************



 TOTAL JOB TIME:             0.69 SECONDS

 == MOPAC DONE ==
