 *******************************************************************************
 **                                                                           **
 **                              MOPAC v22.1.1                                **
 **                                                                           **
 *******************************************************************************
 **          Digital Object Identifier (DOI): 10.5281/zenodo.6511958          **
 **    Visit the DOI location for information on how to cite this program.    **
 *******************************************************************************

                              PM7 CALCULATION RESULTS

 *******************************************************************************
 *  CALCULATION DONE:                                Sun Mar  3 15:06:51 2024  *
 *  PM7        - The PM7 Hamiltonian to be used
 *  SINGLET    - SPIN STATE DEFINED AS A SINGLET
 *
 *
 *
 *                 CHARGE ON SYSTEM = 0
 *
 *
 *
 *  T=         - A TIME OF 172800.0 SECONDS REQUESTED
 *  DUMP=N     - RESTART FILE WRITTEN EVERY 7200.0 SECONDS REQUESTED
 *  LARGE      - EXPANDED OUTPUT TO BE PRINTED
 *******************************************************************************
 LARGE CHARGE=0 SINGLET  PM7
 Au38

   ATOM   CHEMICAL          X               Y               Z
  NUMBER   SYMBOL      (ANGSTROMS)     (ANGSTROMS)     (ANGSTROMS)
 
     1      Au          0.00000000  *   4.07825000  *   8.15650000  *
     2      Au          0.00000000  *   8.15650000  *   4.07825000  *
     3      Au          4.07825000  *   0.00000000  *   8.15650000  *
     4      Au          4.07825000  *   4.07825000  *   4.07825000  *
     5      Au          4.07825000  *   4.07825000  *   8.15650000  *
     6      Au          4.07825000  *   8.15650000  *   0.00000000  *
     7      Au          4.07825000  *   8.15650000  *   4.07825000  *
     8      Au          4.07825000  *   8.15650000  *   8.15650000  *
     9      Au          8.15650000  *   0.00000000  *   4.07825000  *
    10      Au          8.15650000  *   4.07825000  *   0.00000000  *
    11      Au          8.15650000  *   4.07825000  *   4.07825000  *
    12      Au          8.15650000  *   4.07825000  *   8.15650000  *
    13      Au          8.15650000  *   8.15650000  *   4.07825000  *
    14      Au          8.15650000  *   8.15650000  *   8.15650000  *
    15      Au          0.00000000  *   6.11738000  *   6.11738000  *
    16      Au          4.07825000  *   2.03912000  *   6.11738000  *
    17      Au          4.07825000  *   6.11738000  *   2.03912000  *
    18      Au          4.07825000  *   6.11738000  *   6.11738000  *
    19      Au          8.15650000  *   2.03912000  *   2.03912000  *
    20      Au          8.15650000  *   2.03912000  *   6.11738000  *
    21      Au          8.15650000  *   6.11738000  *   2.03912000  *
    22      Au          8.15650000  *   6.11738000  *   6.11738000  *
    23      Au          2.03912000  *   4.07825000  *   6.11738000  *
    24      Au          2.03912000  *   8.15650000  *   2.03912000  *
    25      Au          2.03912000  *   8.15650000  *   6.11738000  *
    26      Au          6.11738000  *   0.00000000  *   6.11738000  *
    27      Au          6.11738000  *   4.07825000  *   2.03912000  *
    28      Au          6.11738000  *   4.07825000  *   6.11738000  *
    29      Au          6.11738000  *   8.15650000  *   2.03912000  *
    30      Au          6.11738000  *   8.15650000  *   6.11738000  *
    31      Au          2.03912000  *   2.03912000  *   8.15650000  *
    32      Au          2.03912000  *   6.11738000  *   4.07825000  *
    33      Au          2.03912000  *   6.11738000  *   8.15650000  *
    34      Au          6.11738000  *   2.03912000  *   4.07825000  *
    35      Au          6.11738000  *   2.03912000  *   8.15650000  *
    36      Au          6.11738000  *   6.11738000  *   0.00000000  *
    37      Au          6.11738000  *   6.11738000  *   4.07825000  *
    38      Au          6.11738000  *   6.11738000  *   8.15650000  *
 


          CARTESIAN COORDINATES 

    NO.       ATOM           X           Y           Z

     1        Au          0.0000      4.0782      8.1565
     2        Au          0.0000      8.1565      4.0782
     3        Au          4.0782      0.0000      8.1565
     4        Au          4.0782      4.0782      4.0782
     5        Au          4.0782      4.0782      8.1565
     6        Au          4.0782      8.1565      0.0000
     7        Au          4.0782      8.1565      4.0782
     8        Au          4.0782      8.1565      8.1565
     9        Au          8.1565      0.0000      4.0782
    10        Au          8.1565      4.0782      0.0000
    11        Au          8.1565      4.0782      4.0782
    12        Au          8.1565      4.0782      8.1565
    13        Au          8.1565      8.1565      4.0782
    14        Au          8.1565      8.1565      8.1565
    15        Au          0.0000      6.1174      6.1174
    16        Au          4.0782      2.0391      6.1174
    17        Au          4.0782      6.1174      2.0391
    18        Au          4.0782      6.1174      6.1174
    19        Au          8.1565      2.0391      2.0391
    20        Au          8.1565      2.0391      6.1174
    21        Au          8.1565      6.1174      2.0391
    22        Au          8.1565      6.1174      6.1174
    23        Au          2.0391      4.0782      6.1174
    24        Au          2.0391      8.1565      2.0391
    25        Au          2.0391      8.1565      6.1174
    26        Au          6.1174      0.0000      6.1174
    27        Au          6.1174      4.0782      2.0391
    28        Au          6.1174      4.0782      6.1174
    29        Au          6.1174      8.1565      2.0391
    30        Au          6.1174      8.1565      6.1174
    31        Au          2.0391      2.0391      8.1565
    32        Au          2.0391      6.1174      4.0782
    33        Au          2.0391      6.1174      8.1565
    34        Au          6.1174      2.0391      4.0782
    35        Au          6.1174      2.0391      8.1565
    36        Au          6.1174      6.1174      0.0000
    37        Au          6.1174      6.1174      4.0782
    38        Au          6.1174      6.1174      8.1565

 General Reference for PM7:
 "Optimization of Parameters for Semiempirical Methods VI: More Modifications to the 
 NDDO Approximations and Re-optimization of Parameters", J. J. P. Stewart, J. Mol. Mod., 1:32, 19 (2013)
 https://link.springer.com/article/10.1007/s00894-012-1667-x

           Empirical Formula: Au38  =    38 atoms



      MOLECULAR POINT GROUP   :   C3v 


 SINGLET STATE CALCULATION


      RHF CALCULATION, NO. OF DOUBLY OCCUPIED LEVELS = 209


          Geometry optimization using L-BFGS
 CYCLE:     1 TIME:   4.270 TIME LEFT:  2.00D  GRAD.:  1304.952 HEAT:  1237.787
 CYCLE:     2 TIME:   3.203 TIME LEFT:  2.00D  GRAD.:  1294.395 HEAT:  1220.827
 CYCLE:     3 TIME:   3.250 TIME LEFT:  2.00D  GRAD.:   565.181 HEAT: -51.84001
 CYCLE:     4 TIME:   3.188 TIME LEFT:  2.00D  GRAD.:  1294.468 HEAT:  1220.804
 CYCLE:     5 TIME:   3.262 TIME LEFT:  2.00D  GRAD.:   565.139 HEAT: -51.89454
 CYCLE:     6 TIME:   3.250 TIME LEFT:  2.00D  GRAD.:   246.278 HEAT: -478.3211
 CYCLE:     7 TIME:   3.020 TIME LEFT:  2.00D  GRAD.:   157.341 HEAT: -563.6429
 CYCLE:     8 TIME:   3.016 TIME LEFT:  2.00D  GRAD.:    65.641 HEAT: -591.4474
 CYCLE:     9 TIME:   3.000 TIME LEFT:  2.00D  GRAD.:    46.527 HEAT: -601.7773
 CYCLE:    10 TIME:   3.031 TIME LEFT:  2.00D  GRAD.:    30.530 HEAT: -608.3551
 CYCLE:    11 TIME:   3.047 TIME LEFT:  2.00D  GRAD.:    30.839 HEAT: -611.8018
 CYCLE:    12 TIME:   2.953 TIME LEFT:  2.00D  GRAD.:    43.879 HEAT: -612.7903
 CYCLE:    13 TIME:   2.969 TIME LEFT:  2.00D  GRAD.:    18.846 HEAT: -614.5093
 CYCLE:    14 TIME:   2.953 TIME LEFT:  2.00D  GRAD.:    17.843 HEAT: -615.6894
 CYCLE:    15 TIME:   2.938 TIME LEFT:  2.00D  GRAD.:    30.824 HEAT: -618.0606
 CYCLE:    16 TIME:   3.074 TIME LEFT:  2.00D  GRAD.:    56.251 HEAT: -623.7650
 CYCLE:    17 TIME:   3.078 TIME LEFT:  2.00D  GRAD.:    84.576 HEAT: -631.8230
 CYCLE:    18 TIME:   3.098 TIME LEFT:  2.00D  GRAD.:   108.048 HEAT: -636.6628
 CYCLE:    19 TIME:   3.062 TIME LEFT:  2.00D  GRAD.:   148.195 HEAT: -636.7318
 CYCLE:    20 TIME:   3.031 TIME LEFT:  2.00D  GRAD.:   143.593 HEAT: -632.8838
 CYCLE:    21 TIME:   3.078 TIME LEFT:  2.00D  GRAD.:   239.658 HEAT: -608.5287
 CYCLE:    22 TIME:   3.062 TIME LEFT:  2.00D  GRAD.:   203.582 HEAT: -637.8687
 CYCLE:    23 TIME:   3.062 TIME LEFT:  2.00D  GRAD.:   162.164 HEAT: -632.2453
 CYCLE:    24 TIME:   3.312 TIME LEFT:  2.00D  GRAD.:   149.124 HEAT: -655.1004
 CYCLE:    25 TIME:   3.047 TIME LEFT:  2.00D  GRAD.:    80.003 HEAT: -679.8922
 CYCLE:    26 TIME:   3.145 TIME LEFT:  2.00D  GRAD.:   126.262 HEAT: -677.8904
 CYCLE:    27 TIME:   3.062 TIME LEFT:  2.00D  GRAD.:    94.580 HEAT: -696.3921
 CYCLE:    28 TIME:   2.988 TIME LEFT:  2.00D  GRAD.:    37.088 HEAT: -705.7741
 CYCLE:    29 TIME:   2.984 TIME LEFT:  2.00D  GRAD.:    32.553 HEAT: -710.1489
 CYCLE:    30 TIME:   3.066 TIME LEFT:  2.00D  GRAD.:    32.569 HEAT: -714.4189
 CYCLE:    31 TIME:   3.047 TIME LEFT:  2.00D  GRAD.:    37.306 HEAT: -718.4039
 CYCLE:    32 TIME:   3.078 TIME LEFT:  2.00D  GRAD.:    43.024 HEAT: -722.2094
 CYCLE:    33 TIME:   3.066 TIME LEFT:  2.00D  GRAD.:    31.687 HEAT: -727.0479
 CYCLE:    34 TIME:   3.000 TIME LEFT:  2.00D  GRAD.:    15.501 HEAT: -728.0554
 CYCLE:    35 TIME:   2.984 TIME LEFT:  2.00D  GRAD.:     8.551 HEAT: -728.4731
 CYCLE:    36 TIME:   3.035 TIME LEFT:  2.00D  GRAD.:     4.860 HEAT: -728.7329
 CYCLE:    37 TIME:   2.988 TIME LEFT:  2.00D  GRAD.:     2.129 HEAT: -728.7953
 CYCLE:    38 TIME:   3.000 TIME LEFT:  2.00D  GRAD.:     1.554 HEAT: -728.8018
 CYCLE:    39 TIME:   3.000 TIME LEFT:  2.00D  GRAD.:     0.591 HEAT: -728.8043

 -------------------------------------------------------------------------------
 LARGE CHARGE=0 SINGLET  PM7
 Au38



     HERBERTS TEST WAS SATISFIED IN BFGS                      
     SCF FIELD WAS ACHIEVED                                   


                              PM7 CALCULATION
                                                       MOPAC v22.1.1 Windows
                                                       Sun Mar  3 15:08:53 2024




          FINAL HEAT OF FORMATION =       -728.80430 KCAL/MOL =   -3049.31720 KJ/MOL


          COSMO AREA              =        606.25 SQUARE ANGSTROMS
          COSMO VOLUME            =       1120.09 CUBIC ANGSTROMS

          GRADIENT NORM           =          0.59142          =       0.09594 PER ATOM
          IONIZATION POTENTIAL    =          5.786465 EV
          HOMO LUMO ENERGIES (EV) =         -5.786 -0.852
          NO. OF FILLED LEVELS    =        209
          MOLECULAR WEIGHT        =       7484.7270         POINT GROUP:  C3v 

          MOLECULAR DIMENSIONS (Angstroms)

            Atom       Atom       Distance
           Au     6   Au     3    12.15263
           Au    19   Au     8    11.20059
           Au    12   Au    15     8.38140


          SCF CALCULATIONS        =         40
 
          WALL-CLOCK TIME         =          2 MINUTES AND 1.961 SECONDS
          COMPUTATION TIME        =          4 MINUTES AND 4.906 SECONDS




   ATOM   CHEMICAL          X               Y               Z
  NUMBER   SYMBOL      (ANGSTROMS)     (ANGSTROMS)     (ANGSTROMS)
 
     1      Au          0.31696845  *   4.47120544  *   8.91010548  *
     2      Au          0.31702554  *   8.91015084  *   4.47136254  *
     3      Au          4.47137550  *   0.31693841  *   8.91011151  *
     4      Au          3.29659206  *   3.29658342  *   3.29657557  *
     5      Au          3.52012967  *   3.52007952  *   8.22438846  *
     6      Au          4.47139578  *   8.91033479  *   0.31709093  *
     7      Au          3.52023324  *   8.22446112  *   3.52033110  *
     8      Au          4.65115813  *   8.84939815  *   8.84958808  *
     9      Au          8.91037469  *   0.31717834  *   4.47138292  *
    10      Au          8.91038031  *   4.47155257  *   0.31714762  *
    11      Au          8.22453438  *   3.52048425  *   3.52043391  *
    12      Au          8.84934989  *   4.65132997  *   8.84958794  *
    13      Au          8.84934983  *   8.84953915  *   4.65150157  *
    14      Au          7.92815286  *   7.92832208  *   7.92849089  *
    15      Au          0.15507972  *   6.53641018  *   6.53639148  *
    16      Au          3.44788415  *   1.07585753  *   5.64113230  *
    17      Au          3.44788969  *   5.64139983  *   1.07584997  *
    18      Au          3.44321486  *   5.77666411  *   5.77658896  *
    19      Au          8.02623067  *   1.29768554  *   1.29752590  *
    20      Au          9.06270435  *   2.42851881  *   6.68831013  *
    21      Au          9.06274389  *   6.68842531  *   2.42861349  *
    22      Au          8.16418857  *   5.67870134  *   5.67876083  *
    23      Au          1.07589767  *   3.44774124  *   5.64106321  *
    24      Au          1.29749219  *   8.02593314  *   1.29749356  *
    25      Au          2.42833683  *   9.06263005  *   6.68825960  *
    26      Au          6.53666486  *   0.15513687  *   6.53643511  *
    27      Au          5.64134205  *   3.44774037  *   1.07582211  *
    28      Au          5.77684193  *   3.44331602  *   5.77661759  *
    29      Au          6.68816485  *   9.06276131  *   2.42864446  *
    30      Au          5.67860746  *   8.16424154  *   5.67880882  *
    31      Au          1.29745996  *   1.29729971  *   8.02563537  *
    32      Au          1.07587000  *   5.64100517  *   3.44759182  *
    33      Au          2.42836770  *   6.68799871  *   9.06264797  *
    34      Au          5.64127230  *   1.07586305  *   3.44759845  *
    35      Au          6.68811429  *   2.42846258  *   9.06268775  *
    36      Au          6.53670810  *   6.53668929  *   0.15519335  *
    37      Au          5.77687046  *   5.77679550  *   3.44341764  *
    38      Au          5.67865609  *   5.67871543  *   8.16429509  *

                             CARTESIAN COORDINATES

   1   Au        0.316968454     4.471205435     8.910105484
   2   Au        0.317025535     8.910150836     4.471362536
   3   Au        4.471375502     0.316938412     8.910111506
   4   Au        3.296592064     3.296583424     3.296575567
   5   Au        3.520129670     3.520079525     8.224388463
   6   Au        4.471395777     8.910334789     0.317090930
   7   Au        3.520233242     8.224461117     3.520331103
   8   Au        4.651158133     8.849398155     8.849588078
   9   Au        8.910374689     0.317178338     4.471382919
  10   Au        8.910380306     4.471552573     0.317147617
  11   Au        8.224534378     3.520484252     3.520433911
  12   Au        8.849349889     4.651329974     8.849587941
  13   Au        8.849349834     8.849539152     4.651501569
  14   Au        7.928152855     7.928322082     7.928490886
  15   Au        0.155079724     6.536410185     6.536391482
  16   Au        3.447884145     1.075857529     5.641132300
  17   Au        3.447889692     5.641399832     1.075849970
  18   Au        3.443214862     5.776664109     5.776588963
  19   Au        8.026230668     1.297685537     1.297525904
  20   Au        9.062704351     2.428518806     6.688310126
  21   Au        9.062743894     6.688425313     2.428613488
  22   Au        8.164188571     5.678701339     5.678760831
  23   Au        1.075897671     3.447741237     5.641063210
  24   Au        1.297492191     8.025933143     1.297493564
  25   Au        2.428336828     9.062630047     6.688259604
  26   Au        6.536664860     0.155136873     6.536435115
  27   Au        5.641342053     3.447740366     1.075822112
  28   Au        5.776841935     3.443316018     5.776617586
  29   Au        6.688164850     9.062761306     2.428644464
  30   Au        5.678607465     8.164241545     5.678808820
  31   Au        1.297459959     1.297299711     8.025635373
  32   Au        1.075870001     5.641005169     3.447591817
  33   Au        2.428367699     6.687998714     9.062647966
  34   Au        5.641272296     1.075863047     3.447598450
  35   Au        6.688114294     2.428462581     9.062687745
  36   Au        6.536708099     6.536689288     0.155193355
  37   Au        5.776870456     5.776795497     3.443417642
  38   Au        5.678656089     5.678715427     8.164295093


           Empirical Formula: Au38  =    38 atoms



      MOLECULAR POINT GROUP   :   C3v 


                  EIGENVALUES  
 -42.21075 -31.34345 -31.34292 -28.69281 -21.78935 -21.78897 -20.17223 -18.39351
 -18.39291 -16.24061 -14.73117 -14.44555 -14.27383 -14.27335 -13.51722 -13.51718
 -13.49174 -13.33213 -13.33205 -13.22112 -13.22112 -13.22038 -13.19595 -13.19595
 -13.19517 -13.18716 -13.14007 -13.14006 -13.09689 -13.09687 -13.05525 -13.05520
 -13.05238 -13.03496 -12.94717 -12.91326 -12.91325 -12.89025 -12.85976 -12.85962
 -12.83198 -12.83195 -12.82510 -12.80674 -12.80670 -12.78046 -12.78041 -12.75620
 -12.74539 -12.73399 -12.73384 -12.69989 -12.69325 -12.69320 -12.66445 -12.66435
 -12.64449 -12.64178 -12.63170 -12.63168 -12.60289 -12.60287 -12.60222 -12.60221
 -12.59199 -12.58736 -12.58736 -12.58119 -12.57940 -12.57080 -12.57076 -12.54542
 -12.54536 -12.51755 -12.51535 -12.49017 -12.47193 -12.47191 -12.45207 -12.45203
 -12.44527 -12.44071 -12.44068 -12.40725 -12.40719 -12.38254 -12.36510 -12.35547
 -12.35546 -12.31377 -12.29855 -12.27162 -12.27156 -12.20458 -12.18175 -12.14954
 -12.14953 -12.13956 -12.13956 -12.09954 -12.09954 -12.07976 -12.07975 -12.07533
 -12.04414 -12.04414 -12.01943 -12.00959 -12.00603 -12.00601 -11.99082 -11.99081
 -11.98581 -11.98578 -11.98292 -11.98103 -11.98099 -11.98001 -11.98000 -11.97997
 -11.97838 -11.97112 -11.97110 -11.96828 -11.95482 -11.95480 -11.93934 -11.92207
 -11.91065 -11.91064 -11.91003 -11.89983 -11.89982 -11.88928 -11.87248 -11.87246
 -11.87147 -11.84239 -11.84238 -11.83908 -11.82925 -11.82923 -11.82835 -11.81594
 -11.81590 -11.81512 -11.81248 -11.81108 -11.81105 -11.80964 -11.80288 -11.80124
 -11.80121 -11.79208 -11.79204 -11.78862 -11.78860 -11.78573 -11.77456 -11.77450
 -11.76632 -11.74096 -11.73506 -11.73495 -11.73261 -11.73257 -11.67076 -11.64873
 -11.64813 -11.64810 -11.53143 -11.53142 -11.53064 -11.51132 -11.48110 -11.48108
 -11.47426 -11.46265 -11.46262 -11.45031 -11.44846 -11.44843 -11.43826 -11.43254
 -11.43252 -11.42112 -11.42109 -11.41821 -11.40675 -11.40418 -11.40417 -11.40006
 -11.40003 -11.39335 -11.38536 -11.38533 -11.37615 -11.30933 -11.30927 -10.90991
 -10.90197  -9.96511  -9.08001  -9.07924  -8.84084  -8.84057  -6.95285  -5.78688
  -5.78646  -0.85223  -0.85219  -0.20287   0.36709   0.86699   0.97406   0.97438
   1.22843   1.22846   1.63808   2.54050   2.54057   2.73281   2.73308   3.18555
   3.36770   3.92472   3.92482   4.34996  51.32310  51.46127  51.46214  51.85672
  52.64699  52.64863  54.76424  55.92991  55.93012  56.05444  56.37906  56.41216
  56.41218  56.68039  56.68055  56.96368  56.97677  56.97731  57.00225  59.26533
  59.26577  59.84925  59.84957  60.43866  60.44231  60.44242  61.11842  62.34304
  62.34317  62.42412  62.95139  63.12160  63.12205  63.75863  64.42915  64.43020
  65.11831  66.29298  66.29323  66.96448  68.03678  68.03737  68.79575  68.94744
  68.98352  68.98354  69.44983  69.44986  69.89380  69.89400  69.99106  70.18650
  70.39793  70.39837  70.98254  70.98280  71.02237  71.29961  71.30020  71.50280
  72.08121  72.08132  72.28212  72.36218  72.58673  72.58728  72.95349  73.03759
  73.03819  73.39477  73.64180  73.64203  73.75916  73.84322  73.94131  73.94150
  74.20028  74.20045  74.53557  74.54541  74.97852  74.97905  74.99801  75.07501
  75.43705  75.43736  75.75084  75.75105  75.79603  76.18441  76.18494  76.31720
  77.30655  77.30687  77.50777  77.50788  77.60931  77.75596  77.75647  78.32364
  78.32803  78.32817  79.35356  79.38051  79.38061  79.65593  80.02808  80.02836
  80.51863  80.51893  80.82152  80.94417  80.99227  80.99261


              NET ATOMIC CHARGES AND DIPOLE CONTRIBUTIONS

  ATOM NO.   TYPE          CHARGE      No. of ELECS.   s-Pop       p-Pop       d-Pop       
    1         Au          -0.125219       11.1252     1.13349     0.02055     9.97118
    2         Au          -0.125209       11.1252     1.13348     0.02055     9.97118
    3         Au          -0.125220       11.1252     1.13349     0.02055     9.97119
    4         Au           0.110021       10.8900     0.88148     0.05278     9.95572
    5         Au           0.037865       10.9621     0.96123     0.05247     9.94844
    6         Au          -0.125228       11.1252     1.13349     0.02055     9.97119
    7         Au           0.037881       10.9621     0.96122     0.05247     9.94843
    8         Au          -0.102341       11.1023     1.11337     0.01965     9.96932
    9         Au          -0.125216       11.1252     1.13348     0.02055     9.97118
   10         Au          -0.125217       11.1252     1.13348     0.02055     9.97119
   11         Au           0.037896       10.9621     0.96121     0.05247     9.94843
   12         Au          -0.102335       11.1023     1.11337     0.01965     9.96932
   13         Au          -0.102328       11.1023     1.11336     0.01965     9.96931
   14         Au          -0.070036       11.0700     1.08124     0.01863     9.97017
   15         Au          -0.007135       11.0071     1.00725     0.03638     9.96351
   16         Au           0.051916       10.9481     0.94747     0.04355     9.95707
   17         Au           0.051896       10.9481     0.94748     0.04354     9.95708
   18         Au           0.133620       10.8664     0.84588     0.06116     9.95933
   19         Au          -0.083000       11.0830     1.09401     0.01685     9.97213
   20         Au           0.028717       10.9713     0.97039     0.03631     9.96458
   21         Au           0.028717       10.9713     0.97039     0.03631     9.96458
   22         Au           0.096835       10.9032     0.89877     0.05268     9.95172
   23         Au           0.051944       10.9481     0.94744     0.04355     9.95707
   24         Au          -0.082994       11.0830     1.09401     0.01686     9.97213
   25         Au           0.028715       10.9713     0.97039     0.03631     9.96459
   26         Au          -0.007132       11.0071     1.00724     0.03637     9.96351
   27         Au           0.051875       10.9481     0.94751     0.04354     9.95708
   28         Au           0.133633       10.8664     0.84587     0.06117     9.95933
   29         Au           0.028719       10.9713     0.97039     0.03631     9.96458
   30         Au           0.096802       10.9032     0.89880     0.05267     9.95173
   31         Au          -0.082988       11.0830     1.09400     0.01686     9.97213
   32         Au           0.051923       10.9481     0.94746     0.04354     9.95707
   33         Au           0.028717       10.9713     0.97039     0.03631     9.96459
   34         Au           0.051903       10.9481     0.94748     0.04354     9.95708
   35         Au           0.028717       10.9713     0.97039     0.03631     9.96459
   36         Au          -0.007129       11.0071     1.00724     0.03637     9.96351
   37         Au           0.133647       10.8664     0.84585     0.06117     9.95933
   38         Au           0.096768       10.9032     0.89883     0.05267     9.95173
 DIPOLE           X         Y         Z       TOTAL
 POINT-CHG.    -1.512    -1.512    -1.512     2.619
 HYBRID         0.078     0.078     0.078     0.135
 SUM           -1.434    -1.434    -1.434     2.484


          ATOMIC ORBITAL ELECTRON POPULATIONS

     Atom    s        px        py        pz      x^2-y^2     xz        z^2       yz        xy
    1 Au   1.13349   0.00502   0.01056   0.00497   1.99388   1.99934   1.99337   1.99343   1.99117
    2 Au   1.13348   0.00502   0.00497   0.01056   1.99327   1.99117   1.99398   1.99343   1.99934
    3 Au   1.13349   0.01056   0.00502   0.00497   1.99388   1.99343   1.99337   1.99934   1.99117
    4 Au   0.88148   0.01760   0.01759   0.01759   1.99274   1.99008   1.99274   1.99008   1.99008
    5 Au   0.96123   0.02219   0.02219   0.00809   1.98199   1.99386   1.99299   1.99386   1.98574
    6 Au   1.13349   0.01056   0.00497   0.00502   1.99372   1.99117   1.99352   1.99934   1.99343
    7 Au   0.96122   0.02219   0.00809   0.02219   1.99024   1.98574   1.98474   1.99386   1.99386
    8 Au   1.11337   0.01043   0.00461   0.00461   1.99351   1.99211   1.99237   1.99923   1.99211
    9 Au   1.13348   0.00497   0.00502   0.01056   1.99327   1.99343   1.99398   1.99117   1.99934
   10 Au   1.13348   0.00497   0.01056   0.00502   1.99372   1.99934   1.99352   1.99117   1.99343
   11 Au   0.96121   0.00809   0.02219   0.02219   1.99024   1.99386   1.98474   1.98573   1.99386
   12 Au   1.11337   0.00461   0.01043   0.00461   1.99351   1.99923   1.99237   1.99211   1.99211
   13 Au   1.11336   0.00461   0.00461   0.01043   1.99179   1.99210   1.99408   1.99211   1.99923
   14 Au   1.08124   0.00621   0.00621   0.00621   1.99482   1.99351   1.99482   1.99351   1.99351
   15 Au   1.00725   0.00505   0.01567   0.01566   1.98934   1.99727   1.99097   1.98866   1.99727
   16 Au   0.94747   0.01828   0.00752   0.01775   1.99355   1.98711   1.99075   1.99328   1.99239
   17 Au   0.94748   0.01828   0.01774   0.00752   1.98994   1.99239   1.99436   1.99328   1.98711
   18 Au   0.84588   0.02183   0.01967   0.01967   1.99244   1.99122   1.99106   1.99339   1.99122
   19 Au   1.09401   0.00460   0.00613   0.00613   1.99551   1.99433   1.99493   1.99304   1.99433
   20 Au   0.97039   0.00538   0.01496   0.01596   1.99086   1.99700   1.99346   1.98581   1.99746
   21 Au   0.97039   0.00538   0.01596   0.01496   1.99159   1.99746   1.99273   1.98581   1.99700
   22 Au   0.89877   0.00846   0.02211   0.02211   1.99147   1.99339   1.98628   1.98718   1.99339
   23 Au   0.94744   0.00752   0.01828   0.01775   1.99355   1.99327   1.99075   1.98711   1.99239
   24 Au   1.09401   0.00613   0.00460   0.00613   1.99551   1.99304   1.99493   1.99433   1.99432
   25 Au   0.97039   0.01496   0.00538   0.01596   1.99086   1.98581   1.99346   1.99700   1.99746
   26 Au   1.00724   0.01567   0.00505   0.01566   1.98935   1.98866   1.99097   1.99727   1.99727
   27 Au   0.94751   0.01774   0.01828   0.00752   1.98994   1.99328   1.99436   1.99239   1.98711
   28 Au   0.84587   0.01967   0.02183   0.01967   1.99244   1.99339   1.99106   1.99122   1.99122
   29 Au   0.97039   0.01596   0.00538   0.01496   1.99159   1.98581   1.99273   1.99746   1.99700
   30 Au   0.89880   0.02211   0.00846   0.02211   1.99147   1.98718   1.98628   1.99339   1.99340
   31 Au   1.09400   0.00613   0.00613   0.00460   1.99463   1.99432   1.99581   1.99432   1.99304
   32 Au   0.94746   0.00752   0.01774   0.01828   1.99296   1.99239   1.99134   1.98711   1.99328
   33 Au   0.97039   0.01496   0.01596   0.00538   1.99403   1.99746   1.99029   1.99700   1.98581
   34 Au   0.94748   0.01774   0.00752   0.01828   1.99296   1.98711   1.99135   1.99239   1.99328
   35 Au   0.97039   0.01596   0.01496   0.00538   1.99403   1.99700   1.99029   1.99746   1.98581
   36 Au   1.00724   0.01566   0.01566   0.00505   1.99179   1.99727   1.98853   1.99727   1.98866
   37 Au   0.84585   0.01967   0.01967   0.02183   1.99036   1.99122   1.99314   1.99122   1.99339
   38 Au   0.89883   0.02211   0.02211   0.00845   1.98369   1.99340   1.99407   1.99340   1.98718

 **********************
 *                    *
 * JOB ENDED NORMALLY *
 *                    *
 **********************



 TOTAL JOB TIME:           121.98 SECONDS

 == MOPAC DONE ==
