 *******************************************************************************
 **                                                                           **
 **                              MOPAC v22.1.0                                **
 **                                                                           **
 *******************************************************************************
 **          Digital Object Identifier (DOI): 10.5281/zenodo.6511958          **
 **    Visit the DOI location for information on how to cite this program.    **
 *******************************************************************************

                              PM7 CALCULATION RESULTS

 *******************************************************************************
 *  CALCULATION DONE:                                Fri Feb  9 06:55:43 2024  *
 *  PM7        - The PM7 Hamiltonian to be used
 *  SINGLET    - SPIN STATE DEFINED AS A SINGLET
 *
 *
 *
 *                 CHARGE ON SYSTEM = 0
 *
 *
 *
 *  T=         - A TIME OF 172800.0 SECONDS REQUESTED
 *  DUMP=N     - RESTART FILE WRITTEN EVERY 7200.0 SECONDS REQUESTED
 *  LARGE      - EXPANDED OUTPUT TO BE PRINTED
 *******************************************************************************
  LARGE CHARGE=0 SINGLET  PM7
 cis olejova

   ATOM   CHEMICAL          X               Y               Z
  NUMBER   SYMBOL      (ANGSTROMS)     (ANGSTROMS)     (ANGSTROMS)
 
     1       O          7.24380000  *   0.32840000  *  -0.65850000  *
     2       O          6.14720000  *  -0.15640000  *   1.27530000  *
     3       C         -3.15030000  *  -1.57060000  *  -0.30690000  *
     4       C         -4.44220000  *  -1.37430000  *   0.48920000  *
     5       C         -2.09420000  *  -2.39070000  *   0.44110000  *
     6       C         -0.00120000  *   1.92260000  *  -0.43190000  *
     7       C          1.20160000  *   1.36000000  *   0.32820000  *
     8       C         -5.52510000  *  -0.61970000  *  -0.29170000  *
     9       C         -1.25130000  *   1.95250000  *   0.45290000  *
    10       C          2.45970000  *   1.35900000  *  -0.54290000  *
    11       C         -0.81050000  *  -2.69420000  *  -0.33810000  *
    12       C         -5.14020000  *   0.78800000  *  -0.76260000  *
    13       C         -2.48790000  *   2.48410000  *  -0.27790000  *
    14       C          3.66950000  *   0.82650000  *   0.23150000  *
    15       C          0.21980000  *  -3.55990000  *   0.38980000  *
    16       C         -4.84010000  *   1.72490000  *   0.37180000  *
    17       C         -3.72670000  *   2.44730000  *   0.56960000  *
    18       C          4.93760000  *   0.78680000  *  -0.62130000  *
    19       C          1.45310000  *  -3.87070000  *  -0.44320000  *
    20       C          6.13740000  *   0.25640000  *   0.12550000  *
    21       H         -2.71200000  *  -0.60360000  *  -0.56990000  *
    22       H         -3.38660000  *  -2.07630000  *  -1.25130000  *
    23       H         -4.84290000  *  -2.35550000  *   0.77240000  *
    24       H         -4.21980000  *  -0.84790000  *   1.42490000  *
    25       H         -1.82710000  *  -1.86330000  *   1.36560000  *
    26       H         -2.54390000  *  -3.34350000  *   0.74810000  *
    27       H          0.22190000  *   2.93750000  *  -0.78210000  *
    28       H         -0.19450000  *   1.30770000  *  -1.31920000  *
    29       H          1.37990000  *   1.96120000  *   1.22800000  *
    30       H          0.98260000  *   0.33780000  *   0.66030000  *
    31       H         -6.42390000  *  -0.55810000  *   0.33540000  *
    32       H         -5.80560000  *  -1.21340000  *  -1.17080000  *
    33       H         -1.05550000  *   2.57590000  *   1.33490000  *
    34       H         -1.45270000  *   0.94030000  *   0.82530000  *
    35       H          2.66940000  *   2.37720000  *  -0.89220000  *
    36       H          2.29040000  *   0.73910000  *  -1.43160000  *
    37       H         -1.08490000  *  -3.19210000  *  -1.27680000  *
    38       H         -0.33950000  *  -1.74400000  *  -0.62000000  *
    39       H         -5.99160000  *   1.20450000  *  -1.31580000  *
    40       H         -4.32250000  *   0.72580000  *  -1.48450000  *
    41       H         -2.62050000  *   1.92820000  *  -1.21040000  *
    42       H         -2.31010000  *   3.52600000  *  -0.57210000  *
    43       H          3.45030000  *  -0.18280000  *   0.60260000  *
    44       H          3.84420000  *   1.45210000  *   1.11590000  *
    45       H          0.53020000  *  -3.05210000  *   1.31070000  *
    46       H         -0.25000000  *  -4.50380000  *   0.69070000  *
    47       H         -5.63890000  *   1.84100000  *   1.10290000  *
    48       H         -3.70340000  *   3.08660000  *   1.45100000  *
    49       H          4.77340000  *   0.14510000  *  -1.49420000  *
    50       H          5.17300000  *   1.80000000  *  -0.96680000  *
    51       H          1.97010000  *  -2.94990000  *  -0.73170000  *
    52       H          2.15200000  *  -4.48990000  *   0.12780000  *
    53       H          1.18250000  *  -4.41290000  *  -1.35460000  *
    54       H          8.04340000  *   0.00240000  *  -0.19310000  *
 


          CARTESIAN COORDINATES 

    NO.       ATOM           X           Y           Z

     1         O          7.2438      0.3284     -0.6585
     2         O          6.1472     -0.1564      1.2753
     3         C         -3.1503     -1.5706     -0.3069
     4         C         -4.4422     -1.3743      0.4892
     5         C         -2.0942     -2.3907      0.4411
     6         C         -0.0012      1.9226     -0.4319
     7         C          1.2016      1.3600      0.3282
     8         C         -5.5251     -0.6197     -0.2917
     9         C         -1.2513      1.9525      0.4529
    10         C          2.4597      1.3590     -0.5429
    11         C         -0.8105     -2.6942     -0.3381
    12         C         -5.1402      0.7880     -0.7626
    13         C         -2.4879      2.4841     -0.2779
    14         C          3.6695      0.8265      0.2315
    15         C          0.2198     -3.5599      0.3898
    16         C         -4.8401      1.7249      0.3718
    17         C         -3.7267      2.4473      0.5696
    18         C          4.9376      0.7868     -0.6213
    19         C          1.4531     -3.8707     -0.4432
    20         C          6.1374      0.2564      0.1255
    21         H         -2.7120     -0.6036     -0.5699
    22         H         -3.3866     -2.0763     -1.2513
    23         H         -4.8429     -2.3555      0.7724
    24         H         -4.2198     -0.8479      1.4249
    25         H         -1.8271     -1.8633      1.3656
    26         H         -2.5439     -3.3435      0.7481
    27         H          0.2219      2.9375     -0.7821
    28         H         -0.1945      1.3077     -1.3192
    29         H          1.3799      1.9612      1.2280
    30         H          0.9826      0.3378      0.6603
    31         H         -6.4239     -0.5581      0.3354
    32         H         -5.8056     -1.2134     -1.1708
    33         H         -1.0555      2.5759      1.3349
    34         H         -1.4527      0.9403      0.8253
    35         H          2.6694      2.3772     -0.8922
    36         H          2.2904      0.7391     -1.4316
    37         H         -1.0849     -3.1921     -1.2768
    38         H         -0.3395     -1.7440     -0.6200
    39         H         -5.9916      1.2045     -1.3158
    40         H         -4.3225      0.7258     -1.4845
    41         H         -2.6205      1.9282     -1.2104
    42         H         -2.3101      3.5260     -0.5721
    43         H          3.4503     -0.1828      0.6026
    44         H          3.8442      1.4521      1.1159
    45         H          0.5302     -3.0521      1.3107
    46         H         -0.2500     -4.5038      0.6907
    47         H         -5.6389      1.8410      1.1029
    48         H         -3.7034      3.0866      1.4510
    49         H          4.7734      0.1451     -1.4942
    50         H          5.1730      1.8000     -0.9668
    51         H          1.9701     -2.9499     -0.7317
    52         H          2.1520     -4.4899      0.1278
    53         H          1.1825     -4.4129     -1.3546
    54         H          8.0434      0.0024     -0.1931

 General Reference for PM7:
 "Optimization of Parameters for Semiempirical Methods VI: More Modifications to the 
 NDDO Approximations and Re-optimization of Parameters", J. J. P. Stewart, J. Mol. Mod., 1:32, 19 (2013)
 https://link.springer.com/article/10.1007/s00894-012-1667-x

           Empirical Formula: C18 H34 O2  =    54 atoms



      MOLECULAR POINT GROUP   :   C1  


 SINGLET STATE CALCULATION


      RHF CALCULATION, NO. OF DOUBLY OCCUPIED LEVELS = 59


          Geometry optimization using L-BFGS
 CYCLE:     1 TIME:   0.256 TIME LEFT:  2.00D  GRAD.:    87.153 HEAT: -154.5943
 CYCLE:     2 TIME:   0.213 TIME LEFT:  2.00D  GRAD.:    85.575 HEAT: -154.6696
 CYCLE:     3 TIME:   0.229 TIME LEFT:  2.00D  GRAD.:    41.253 HEAT: -157.7774
 CYCLE:     4 TIME:   0.215 TIME LEFT:  2.00D  GRAD.:    85.559 HEAT: -154.6696
 CYCLE:     5 TIME:   0.219 TIME LEFT:  2.00D  GRAD.:   127.771 HEAT: -154.0200
 CYCLE:     6 TIME:   0.219 TIME LEFT:  2.00D  GRAD.:   202.188 HEAT: -151.9526
 CYCLE:     7 TIME:   0.225 TIME LEFT:  2.00D  GRAD.:   325.400 HEAT: -111.2868
 CYCLE:     8 TIME:   0.217 TIME LEFT:  2.00D  GRAD.:    42.194 HEAT: -158.6784
 CYCLE:     9 TIME:   0.215 TIME LEFT:  2.00D  GRAD.:    37.307 HEAT: -158.9226
 CYCLE:    10 TIME:   0.279 TIME LEFT:  2.00D  GRAD.:    19.336 HEAT: -159.0900
 CYCLE:    11 TIME:   0.209 TIME LEFT:  2.00D  GRAD.:    17.528 HEAT: -159.1871
 CYCLE:    12 TIME:   0.213 TIME LEFT:  2.00D  GRAD.:    25.466 HEAT: -159.4085
 CYCLE:    13 TIME:   0.213 TIME LEFT:  2.00D  GRAD.:    28.412 HEAT: -159.6614
 CYCLE:    14 TIME:   0.215 TIME LEFT:  2.00D  GRAD.:    31.889 HEAT: -159.9262
 CYCLE:    15 TIME:   0.215 TIME LEFT:  2.00D  GRAD.:    26.306 HEAT: -160.0867
 CYCLE:    16 TIME:   0.217 TIME LEFT:  2.00D  GRAD.:    18.729 HEAT: -160.1934
 CYCLE:    17 TIME:   0.213 TIME LEFT:  2.00D  GRAD.:    16.389 HEAT: -160.3689
 CYCLE:    18 TIME:   0.213 TIME LEFT:  2.00D  GRAD.:    17.351 HEAT: -160.5450
 CYCLE:    19 TIME:   0.221 TIME LEFT:  2.00D  GRAD.:    14.920 HEAT: -160.6777
 CYCLE:    20 TIME:   0.215 TIME LEFT:  2.00D  GRAD.:    11.965 HEAT: -160.8333
 CYCLE:    21 TIME:   0.217 TIME LEFT:  2.00D  GRAD.:    15.738 HEAT: -160.8591
 CYCLE:    22 TIME:   0.215 TIME LEFT:  2.00D  GRAD.:     5.327 HEAT: -160.9371
 CYCLE:    23 TIME:   0.219 TIME LEFT:  2.00D  GRAD.:     4.451 HEAT: -160.9581
 CYCLE:    24 TIME:   0.234 TIME LEFT:  2.00D  GRAD.:     5.386 HEAT: -161.0007
 CYCLE:    25 TIME:   0.219 TIME LEFT:  2.00D  GRAD.:     6.280 HEAT: -161.0575
 CYCLE:    26 TIME:   0.215 TIME LEFT:  2.00D  GRAD.:    22.954 HEAT: -161.0219
 CYCLE:    27 TIME:   0.215 TIME LEFT:  2.00D  GRAD.:     3.724 HEAT: -161.1210
 CYCLE:    28 TIME:   0.213 TIME LEFT:  2.00D  GRAD.:     2.677 HEAT: -161.1320
 CYCLE:    29 TIME:   0.211 TIME LEFT:  2.00D  GRAD.:     2.976 HEAT: -161.1474
 CYCLE:    30 TIME:   0.211 TIME LEFT:  2.00D  GRAD.:    11.052 HEAT: -161.1426
 CYCLE:    31 TIME:   0.215 TIME LEFT:  2.00D  GRAD.:     2.958 HEAT: -161.1603
 CYCLE:    32 TIME:   0.211 TIME LEFT:  2.00D  GRAD.:     2.084 HEAT: -161.1650
 CYCLE:    33 TIME:   0.215 TIME LEFT:  2.00D  GRAD.:     2.845 HEAT: -161.1732
 CYCLE:    34 TIME:   0.213 TIME LEFT:  2.00D  GRAD.:     3.081 HEAT: -161.1838
 CYCLE:    35 TIME:   0.217 TIME LEFT:  2.00D  GRAD.:     8.607 HEAT: -161.1884
 CYCLE:    36 TIME:   0.211 TIME LEFT:  2.00D  GRAD.:     2.469 HEAT: -161.2109
 CYCLE:    37 TIME:   0.211 TIME LEFT:  2.00D  GRAD.:     1.930 HEAT: -161.2162
 CYCLE:    38 TIME:   0.215 TIME LEFT:  2.00D  GRAD.:     3.075 HEAT: -161.2248
 CYCLE:    39 TIME:   0.213 TIME LEFT:  2.00D  GRAD.:     3.815 HEAT: -161.2338
 CYCLE:    40 TIME:   0.213 TIME LEFT:  2.00D  GRAD.:     3.079 HEAT: -161.2444
 CYCLE:    41 TIME:   0.211 TIME LEFT:  2.00D  GRAD.:     4.454 HEAT: -161.2596
 CYCLE:    42 TIME:   0.213 TIME LEFT:  2.00D  GRAD.:     5.397 HEAT: -161.2691
 CYCLE:    43 TIME:   0.215 TIME LEFT:  2.00D  GRAD.:     3.650 HEAT: -161.2773
 CYCLE:    44 TIME:   0.211 TIME LEFT:  2.00D  GRAD.:     2.647 HEAT: -161.2955
 CYCLE:    45 TIME:   0.217 TIME LEFT:  2.00D  GRAD.:     3.797 HEAT: -161.3082
 CYCLE:    46 TIME:   0.213 TIME LEFT:  2.00D  GRAD.:     6.066 HEAT: -161.3235
 CYCLE:    47 TIME:   0.213 TIME LEFT:  2.00D  GRAD.:     4.329 HEAT: -161.3411
 CYCLE:    48 TIME:   0.211 TIME LEFT:  2.00D  GRAD.:     4.050 HEAT: -161.3584
 CYCLE:    49 TIME:   0.215 TIME LEFT:  2.00D  GRAD.:     4.982 HEAT: -161.3759
 CYCLE:    50 TIME:   0.215 TIME LEFT:  2.00D  GRAD.:     9.753 HEAT: -161.3903
 CYCLE:    51 TIME:   0.211 TIME LEFT:  2.00D  GRAD.:     6.715 HEAT: -161.4148
 CYCLE:    52 TIME:   0.215 TIME LEFT:  2.00D  GRAD.:     3.727 HEAT: -161.4253
 CYCLE:    53 TIME:   0.213 TIME LEFT:  2.00D  GRAD.:     3.015 HEAT: -161.4368
 CYCLE:    54 TIME:   0.219 TIME LEFT:  2.00D  GRAD.:     3.589 HEAT: -161.4499
 CYCLE:    55 TIME:   0.213 TIME LEFT:  2.00D  GRAD.:    11.004 HEAT: -161.4717
 CYCLE:    56 TIME:   0.217 TIME LEFT:  2.00D  GRAD.:     5.117 HEAT: -161.4964
 CYCLE:    57 TIME:   0.219 TIME LEFT:  2.00D  GRAD.:     3.412 HEAT: -161.5062
 CYCLE:    58 TIME:   0.211 TIME LEFT:  2.00D  GRAD.:     4.032 HEAT: -161.5154
 CYCLE:    59 TIME:   0.217 TIME LEFT:  2.00D  GRAD.:     6.009 HEAT: -161.5360
 CYCLE:    60 TIME:   0.215 TIME LEFT:  2.00D  GRAD.:     4.290 HEAT: -161.5598
 CYCLE:    61 TIME:   0.221 TIME LEFT:  2.00D  GRAD.:     4.306 HEAT: -161.5735
 CYCLE:    62 TIME:   0.215 TIME LEFT:  2.00D  GRAD.:     3.126 HEAT: -161.5924
 CYCLE:    63 TIME:   0.211 TIME LEFT:  2.00D  GRAD.:     3.362 HEAT: -161.6080
 CYCLE:    64 TIME:   0.223 TIME LEFT:  2.00D  GRAD.:     4.026 HEAT: -161.6273
 CYCLE:    65 TIME:   0.209 TIME LEFT:  2.00D  GRAD.:     4.635 HEAT: -161.6550
 CYCLE:    66 TIME:   0.219 TIME LEFT:  2.00D  GRAD.:     4.126 HEAT: -161.6787
 CYCLE:    67 TIME:   0.213 TIME LEFT:  2.00D  GRAD.:     4.989 HEAT: -161.7051
 CYCLE:    68 TIME:   0.211 TIME LEFT:  2.00D  GRAD.:     4.500 HEAT: -161.7269
 CYCLE:    69 TIME:   0.215 TIME LEFT:  2.00D  GRAD.:     6.232 HEAT: -161.7504
 CYCLE:    70 TIME:   0.223 TIME LEFT:  2.00D  GRAD.:     5.252 HEAT: -161.7806
 CYCLE:    71 TIME:   0.217 TIME LEFT:  2.00D  GRAD.:     5.152 HEAT: -161.8126
 CYCLE:    72 TIME:   0.213 TIME LEFT:  2.00D  GRAD.:     7.196 HEAT: -161.8498
 CYCLE:    73 TIME:   0.215 TIME LEFT:  2.00D  GRAD.:     7.478 HEAT: -161.8774
 CYCLE:    74 TIME:   0.211 TIME LEFT:  2.00D  GRAD.:     5.350 HEAT: -161.9029
 CYCLE:    75 TIME:   0.215 TIME LEFT:  2.00D  GRAD.:     4.195 HEAT: -161.9417
 CYCLE:    76 TIME:   0.213 TIME LEFT:  2.00D  GRAD.:     5.122 HEAT: -161.9849
 CYCLE:    77 TIME:   0.215 TIME LEFT:  2.00D  GRAD.:     6.683 HEAT: -162.0309
 CYCLE:    78 TIME:   0.219 TIME LEFT:  2.00D  GRAD.:     7.489 HEAT: -162.0692
 CYCLE:    79 TIME:   0.211 TIME LEFT:  2.00D  GRAD.:     4.034 HEAT: -162.1062
 CYCLE:    80 TIME:   0.227 TIME LEFT:  2.00D  GRAD.:     3.060 HEAT: -162.1286
 CYCLE:    81 TIME:   0.232 TIME LEFT:  2.00D  GRAD.:     4.502 HEAT: -162.1487
 CYCLE:    82 TIME:   0.213 TIME LEFT:  2.00D  GRAD.:     4.724 HEAT: -162.1719
 CYCLE:    83 TIME:   0.217 TIME LEFT:  2.00D  GRAD.:     8.421 HEAT: -162.1780
 CYCLE:    84 TIME:   0.211 TIME LEFT:  2.00D  GRAD.:     3.152 HEAT: -162.1930
 CYCLE:    85 TIME:   0.225 TIME LEFT:  2.00D  GRAD.:     2.395 HEAT: -162.1989
 CYCLE:    86 TIME:   0.211 TIME LEFT:  2.00D  GRAD.:     2.974 HEAT: -162.2096
 CYCLE:    87 TIME:   0.213 TIME LEFT:  2.00D  GRAD.:     4.682 HEAT: -162.2239
 CYCLE:    88 TIME:   0.213 TIME LEFT:  2.00D  GRAD.:     6.379 HEAT: -162.2310
 CYCLE:    89 TIME:   0.215 TIME LEFT:  2.00D  GRAD.:     2.680 HEAT: -162.2419
 CYCLE:    90 TIME:   0.215 TIME LEFT:  2.00D  GRAD.:     2.977 HEAT: -162.2509
 CYCLE:    91 TIME:   0.213 TIME LEFT:  2.00D  GRAD.:     3.645 HEAT: -162.2609
 CYCLE:    92 TIME:   0.240 TIME LEFT:  2.00D  GRAD.:     4.096 HEAT: -162.2824
 CYCLE:    93 TIME:   0.236 TIME LEFT:  2.00D  GRAD.:    10.589 HEAT: -162.2834
 CYCLE:    94 TIME:   0.215 TIME LEFT:  2.00D  GRAD.:     3.073 HEAT: -162.3206
 CYCLE:    95 TIME:   0.217 TIME LEFT:  2.00D  GRAD.:     2.362 HEAT: -162.3322
 CYCLE:    96 TIME:   0.213 TIME LEFT:  2.00D  GRAD.:     3.563 HEAT: -162.3511
 CYCLE:    97 TIME:   0.217 TIME LEFT:  2.00D  GRAD.:     9.322 HEAT: -162.3582
 CYCLE:    98 TIME:   0.213 TIME LEFT:  2.00D  GRAD.:     4.123 HEAT: -162.3758
 CYCLE:    99 TIME:   0.213 TIME LEFT:  2.00D  GRAD.:     3.258 HEAT: -162.3879
 CYCLE:   100 TIME:   0.213 TIME LEFT:  2.00D  GRAD.:     4.052 HEAT: -162.4002
 CYCLE:   101 TIME:   0.213 TIME LEFT:  2.00D  GRAD.:     4.419 HEAT: -162.4212
 CYCLE:   102 TIME:   0.227 TIME LEFT:  2.00D  GRAD.:     8.490 HEAT: -162.4494
 CYCLE:   103 TIME:   0.225 TIME LEFT:  2.00D  GRAD.:     6.928 HEAT: -162.4738
 CYCLE:   104 TIME:   0.256 TIME LEFT:  2.00D  GRAD.:     5.214 HEAT: -162.4936
 CYCLE:   105 TIME:   0.213 TIME LEFT:  2.00D  GRAD.:     2.944 HEAT: -162.5074
 CYCLE:   106 TIME:   0.221 TIME LEFT:  2.00D  GRAD.:     2.915 HEAT: -162.5197
 CYCLE:   107 TIME:   0.215 TIME LEFT:  2.00D  GRAD.:     4.396 HEAT: -162.5385
 CYCLE:   108 TIME:   0.211 TIME LEFT:  2.00D  GRAD.:     7.012 HEAT: -162.5577
 CYCLE:   109 TIME:   0.211 TIME LEFT:  2.00D  GRAD.:     3.138 HEAT: -162.5751
 CYCLE:   110 TIME:   0.213 TIME LEFT:  2.00D  GRAD.:     2.774 HEAT: -162.5847
 CYCLE:   111 TIME:   0.215 TIME LEFT:  2.00D  GRAD.:     3.166 HEAT: -162.5992
 CYCLE:   112 TIME:   0.215 TIME LEFT:  2.00D  GRAD.:     6.189 HEAT: -162.6131
 CYCLE:   113 TIME:   0.219 TIME LEFT:  2.00D  GRAD.:     3.925 HEAT: -162.6249
 CYCLE:   114 TIME:   0.289 TIME LEFT:  2.00D  GRAD.:     2.730 HEAT: -162.6345
 CYCLE:   115 TIME:   0.213 TIME LEFT:  2.00D  GRAD.:     2.439 HEAT: -162.6473
 CYCLE:   116 TIME:   0.221 TIME LEFT:  2.00D  GRAD.:     3.428 HEAT: -162.6613
 CYCLE:   117 TIME:   0.211 TIME LEFT:  2.00D  GRAD.:     3.201 HEAT: -162.6758
 CYCLE:   118 TIME:   0.221 TIME LEFT:  2.00D  GRAD.:     2.882 HEAT: -162.6887
 CYCLE:   119 TIME:   0.211 TIME LEFT:  2.00D  GRAD.:     3.069 HEAT: -162.7010
 CYCLE:   120 TIME:   0.211 TIME LEFT:  2.00D  GRAD.:     7.103 HEAT: -162.7064
 CYCLE:   121 TIME:   0.221 TIME LEFT:  2.00D  GRAD.:     2.647 HEAT: -162.7174
 CYCLE:   122 TIME:   0.213 TIME LEFT:  2.00D  GRAD.:     2.154 HEAT: -162.7224
 CYCLE:   123 TIME:   0.215 TIME LEFT:  2.00D  GRAD.:     2.547 HEAT: -162.7279
 CYCLE:   124 TIME:   0.215 TIME LEFT:  2.00D  GRAD.:     3.212 HEAT: -162.7394
 CYCLE:   125 TIME:   0.215 TIME LEFT:  2.00D  GRAD.:    14.608 HEAT: -162.7104
 CYCLE:   126 TIME:   0.215 TIME LEFT:  2.00D  GRAD.:     2.131 HEAT: -162.7488
 CYCLE:   127 TIME:   0.213 TIME LEFT:  2.00D  GRAD.:     1.622 HEAT: -162.7512
 CYCLE:   128 TIME:   0.215 TIME LEFT:  2.00D  GRAD.:     2.791 HEAT: -162.7570
 CYCLE:   129 TIME:   0.213 TIME LEFT:  2.00D  GRAD.:     3.839 HEAT: -162.7609
 CYCLE:   130 TIME:   0.213 TIME LEFT:  2.00D  GRAD.:     2.511 HEAT: -162.7655
 CYCLE:   131 TIME:   0.217 TIME LEFT:  2.00D  GRAD.:     2.015 HEAT: -162.7733
 CYCLE:   132 TIME:   0.213 TIME LEFT:  2.00D  GRAD.:     2.153 HEAT: -162.7779
 CYCLE:   133 TIME:   0.215 TIME LEFT:  2.00D  GRAD.:     4.994 HEAT: -162.7831
 CYCLE:   134 TIME:   0.215 TIME LEFT:  2.00D  GRAD.:     2.529 HEAT: -162.7891
 CYCLE:   135 TIME:   0.211 TIME LEFT:  2.00D  GRAD.:     1.348 HEAT: -162.7914
 CYCLE:   136 TIME:   0.215 TIME LEFT:  2.00D  GRAD.:     1.241 HEAT: -162.7934
 CYCLE:   137 TIME:   0.225 TIME LEFT:  2.00D  GRAD.:     1.838 HEAT: -162.7971
 CYCLE:   138 TIME:   0.217 TIME LEFT:  2.00D  GRAD.:     1.957 HEAT: -162.8032
 CYCLE:   139 TIME:   0.217 TIME LEFT:  2.00D  GRAD.:     6.444 HEAT: -162.8039
 CYCLE:   140 TIME:   0.219 TIME LEFT:  2.00D  GRAD.:     2.315 HEAT: -162.8112
 CYCLE:   141 TIME:   0.211 TIME LEFT:  2.00D  GRAD.:     1.533 HEAT: -162.8151
 CYCLE:   142 TIME:   0.217 TIME LEFT:  2.00D  GRAD.:     2.488 HEAT: -162.8206
 CYCLE:   143 TIME:   0.211 TIME LEFT:  2.00D  GRAD.:     4.060 HEAT: -162.8282
 CYCLE:   144 TIME:   0.213 TIME LEFT:  2.00D  GRAD.:     3.383 HEAT: -162.8350
 CYCLE:   145 TIME:   0.215 TIME LEFT:  2.00D  GRAD.:     3.101 HEAT: -162.8425
 CYCLE:   146 TIME:   0.215 TIME LEFT:  2.00D  GRAD.:     4.773 HEAT: -162.8509
 CYCLE:   147 TIME:   0.215 TIME LEFT:  2.00D  GRAD.:     3.646 HEAT: -162.8651
 CYCLE:   148 TIME:   0.213 TIME LEFT:  2.00D  GRAD.:     3.143 HEAT: -162.8778
 CYCLE:   149 TIME:   0.219 TIME LEFT:  2.00D  GRAD.:    10.129 HEAT: -162.8749
 CYCLE:   150 TIME:   0.217 TIME LEFT:  2.00D  GRAD.:    37.762 HEAT: -162.6136
 CYCLE:   151 TIME:   0.219 TIME LEFT:  2.00D  GRAD.:     6.593 HEAT: -162.8939
 CYCLE:   152 TIME:   0.217 TIME LEFT:  2.00D  GRAD.:     4.308 HEAT: -162.9080
 CYCLE:   153 TIME:   0.213 TIME LEFT:  2.00D  GRAD.:     8.127 HEAT: -162.9026
 CYCLE:   154 TIME:   0.213 TIME LEFT:  2.00D  GRAD.:     3.768 HEAT: -162.9142
 CYCLE:   155 TIME:   0.217 TIME LEFT:  2.00D  GRAD.:     7.992 HEAT: -162.9033
 CYCLE:   156 TIME:   0.211 TIME LEFT:  2.00D  GRAD.:     1.118 HEAT: -162.9189
 CYCLE:   157 TIME:   0.217 TIME LEFT:  2.00D  GRAD.:     1.815 HEAT: -162.9194
 CYCLE:   158 TIME:   0.219 TIME LEFT:  2.00D  GRAD.:     1.401 HEAT: -162.9215
 CYCLE:   159 TIME:   0.229 TIME LEFT:  2.00D  GRAD.:     2.907 HEAT: -162.9211
 CYCLE:   160 TIME:   0.221 TIME LEFT:  2.00D  GRAD.:     1.466 HEAT: -162.9274
 CYCLE:   161 TIME:   0.225 TIME LEFT:  2.00D  GRAD.:     2.500 HEAT: -162.9288
 CYCLE:   162 TIME:   0.221 TIME LEFT:  2.00D  GRAD.:     1.442 HEAT: -162.9330
 CYCLE:   163 TIME:   0.234 TIME LEFT:  2.00D  GRAD.:     1.768 HEAT: -162.9361
 CYCLE:   164 TIME:   0.217 TIME LEFT:  2.00D  GRAD.:     2.068 HEAT: -162.9382
 CYCLE:   165 TIME:   0.215 TIME LEFT:  2.00D  GRAD.:     1.352 HEAT: -162.9405
 CYCLE:   166 TIME:   0.219 TIME LEFT:  2.00D  GRAD.:     1.896 HEAT: -162.9429
 CYCLE:   167 TIME:   0.217 TIME LEFT:  2.00D  GRAD.:     1.936 HEAT: -162.9464
 CYCLE:   168 TIME:   0.215 TIME LEFT:  2.00D  GRAD.:     1.626 HEAT: -162.9503
 CYCLE:   169 TIME:   0.215 TIME LEFT:  2.00D  GRAD.:     1.410 HEAT: -162.9524
 CYCLE:   170 TIME:   0.232 TIME LEFT:  2.00D  GRAD.:     1.680 HEAT: -162.9556
 CYCLE:   171 TIME:   0.213 TIME LEFT:  2.00D  GRAD.:     2.680 HEAT: -162.9596
 CYCLE:   172 TIME:   0.225 TIME LEFT:  2.00D  GRAD.:     1.721 HEAT: -162.9637
 CYCLE:   173 TIME:   0.219 TIME LEFT:  2.00D  GRAD.:     1.447 HEAT: -162.9668
 CYCLE:   174 TIME:   0.217 TIME LEFT:  2.00D  GRAD.:     1.646 HEAT: -162.9715
 CYCLE:   175 TIME:   0.217 TIME LEFT:  2.00D  GRAD.:     2.180 HEAT: -162.9782
 CYCLE:   176 TIME:   0.215 TIME LEFT:  2.00D  GRAD.:     2.754 HEAT: -162.9831
 CYCLE:   177 TIME:   0.217 TIME LEFT:  2.00D  GRAD.:     1.578 HEAT: -162.9888
 CYCLE:   178 TIME:   0.219 TIME LEFT:  2.00D  GRAD.:     1.768 HEAT: -162.9943
 CYCLE:   179 TIME:   0.232 TIME LEFT:  2.00D  GRAD.:     3.946 HEAT: -162.9984
 CYCLE:   180 TIME:   0.227 TIME LEFT:  2.00D  GRAD.:     2.246 HEAT: -163.0035
 CYCLE:   181 TIME:   0.262 TIME LEFT:  2.00D  GRAD.:     1.996 HEAT: -163.0077
 CYCLE:   182 TIME:   0.219 TIME LEFT:  2.00D  GRAD.:     2.479 HEAT: -163.0132
 CYCLE:   183 TIME:   0.219 TIME LEFT:  2.00D  GRAD.:     2.512 HEAT: -163.0170
 CYCLE:   184 TIME:   0.213 TIME LEFT:  2.00D  GRAD.:     1.686 HEAT: -163.0204
 CYCLE:   185 TIME:   0.227 TIME LEFT:  2.00D  GRAD.:     1.605 HEAT: -163.0245
 CYCLE:   186 TIME:   0.256 TIME LEFT:  2.00D  GRAD.:     3.109 HEAT: -163.0273
 CYCLE:   187 TIME:   0.227 TIME LEFT:  2.00D  GRAD.:     1.594 HEAT: -163.0307
 CYCLE:   188 TIME:   0.227 TIME LEFT:  2.00D  GRAD.:     1.655 HEAT: -163.0339
 CYCLE:   189 TIME:   0.225 TIME LEFT:  2.00D  GRAD.:     1.958 HEAT: -163.0366
 CYCLE:   190 TIME:   0.219 TIME LEFT:  2.00D  GRAD.:     2.140 HEAT: -163.0423
 CYCLE:   191 TIME:   0.221 TIME LEFT:  2.00D  GRAD.:     3.855 HEAT: -163.0452
 CYCLE:   192 TIME:   0.211 TIME LEFT:  2.00D  GRAD.:     2.527 HEAT: -163.0515
 CYCLE:   193 TIME:   0.219 TIME LEFT:  2.00D  GRAD.:     1.480 HEAT: -163.0544
 CYCLE:   194 TIME:   0.215 TIME LEFT:  2.00D  GRAD.:     2.859 HEAT: -163.0573
 CYCLE:   195 TIME:   0.215 TIME LEFT:  2.00D  GRAD.:     2.622 HEAT: -163.0583
 CYCLE:   196 TIME:   0.215 TIME LEFT:  2.00D  GRAD.:     1.091 HEAT: -163.0598
 CYCLE:   197 TIME:   0.215 TIME LEFT:  2.00D  GRAD.:     1.140 HEAT: -163.0609
 CYCLE:   198 TIME:   0.217 TIME LEFT:  2.00D  GRAD.:     1.555 HEAT: -163.0626
 CYCLE:   199 TIME:   0.215 TIME LEFT:  2.00D  GRAD.:     1.548 HEAT: -163.0657
 CYCLE:   200 TIME:   0.217 TIME LEFT:  2.00D  GRAD.:     9.253 HEAT: -163.0552
 CYCLE:   201 TIME:   0.213 TIME LEFT:  2.00D  GRAD.:     1.575 HEAT: -163.0700
 CYCLE:   202 TIME:   0.211 TIME LEFT:  2.00D  GRAD.:     1.029 HEAT: -163.0713
 CYCLE:   203 TIME:   0.223 TIME LEFT:  2.00D  GRAD.:     1.339 HEAT: -163.0738
 CYCLE:   204 TIME:   0.229 TIME LEFT:  2.00D  GRAD.:     1.594 HEAT: -163.0762
 CYCLE:   205 TIME:   0.227 TIME LEFT:  2.00D  GRAD.:     1.639 HEAT: -163.0796
 CYCLE:   206 TIME:   0.227 TIME LEFT:  2.00D  GRAD.:     2.196 HEAT: -163.0848
 CYCLE:   207 TIME:   0.230 TIME LEFT:  2.00D  GRAD.:     2.711 HEAT: -163.0900
 CYCLE:   208 TIME:   0.213 TIME LEFT:  2.00D  GRAD.:     2.477 HEAT: -163.0954
 CYCLE:   209 TIME:   0.217 TIME LEFT:  2.00D  GRAD.:     2.615 HEAT: -163.1011
 CYCLE:   210 TIME:   0.213 TIME LEFT:  2.00D  GRAD.:     3.400 HEAT: -163.1101
 CYCLE:   211 TIME:   0.217 TIME LEFT:  2.00D  GRAD.:    12.087 HEAT: -163.0903
 CYCLE:   212 TIME:   0.213 TIME LEFT:  2.00D  GRAD.:     2.749 HEAT: -163.1207
 CYCLE:   213 TIME:   0.213 TIME LEFT:  2.00D  GRAD.:     2.455 HEAT: -163.1206
 CYCLE:   214 TIME:   0.211 TIME LEFT:  2.00D  GRAD.:     1.614 HEAT: -163.1280
 CYCLE:   215 TIME:   0.219 TIME LEFT:  2.00D  GRAD.:     2.181 HEAT: -163.1291
 CYCLE:   216 TIME:   0.215 TIME LEFT:  2.00D  GRAD.:     1.521 HEAT: -163.1345
 CYCLE:   217 TIME:   0.232 TIME LEFT:  2.00D  GRAD.:     2.452 HEAT: -163.1343
 CYCLE:   218 TIME:   0.225 TIME LEFT:  2.00D  GRAD.:     3.362 HEAT: -163.1379
 CYCLE:   219 TIME:   0.213 TIME LEFT:  2.00D  GRAD.:     1.170 HEAT: -163.1409
 CYCLE:   220 TIME:   0.213 TIME LEFT:  2.00D  GRAD.:     1.274 HEAT: -163.1421
 CYCLE:   221 TIME:   0.221 TIME LEFT:  2.00D  GRAD.:     1.787 HEAT: -163.1424
 CYCLE:   222 TIME:   0.221 TIME LEFT:  2.00D  GRAD.:     0.990 HEAT: -163.1452

 -------------------------------------------------------------------------------
 LARGE CHARGE=0 SINGLET  PM7
 cis olejova



     HERBERTS TEST WAS SATISFIED IN BFGS                      
     SCF FIELD WAS ACHIEVED                                   


                              PM7 CALCULATION
                                                       MOPAC v22.1.0 Windows
                                                       Fri Feb  9 06:56:31 2024




          FINAL HEAT OF FORMATION =       -163.14523 KCAL/MOL =    -682.59966 KJ/MOL


          COSMO AREA              =        346.64 SQUARE ANGSTROMS
          COSMO VOLUME            =        420.50 CUBIC ANGSTROMS

          GRADIENT NORM           =          0.98956          =       0.13466 PER ATOM
          IONIZATION POTENTIAL    =          9.617463 EV
          HOMO LUMO ENERGIES (EV) =         -9.617  0.940
          NO. OF FILLED LEVELS    =         59
          MOLECULAR WEIGHT        =        282.4654         POINT GROUP:  C1  

          MOLECULAR DIMENSIONS (Angstroms)

            Atom       Atom       Distance
            H    54    H    31    13.98585
            H    46    H    42     7.42975
            H    48    H    53     3.86226


          SCF CALCULATIONS        =        223
 
          WALL-CLOCK TIME         =     48.580 SECONDS
          COMPUTATION TIME        =          2 MINUTES AND 41.266 SECONDS




   ATOM   CHEMICAL          X               Y               Z
  NUMBER   SYMBOL      (ANGSTROMS)     (ANGSTROMS)     (ANGSTROMS)
 
     1       O          6.91952758  *  -0.19568203  *  -0.49793841  *
     2       O          5.70374874  *  -0.97306394  *   1.19739647  *
     3       C         -2.98919443  *  -1.57273507  *  -0.38185582  *
     4       C         -4.19503158  *  -1.27972719  *   0.51901089  *
     5       C         -1.81835019  *  -2.13280831  *   0.43621350  *
     6       C         -0.17546420  *   1.78386015  *  -0.38073002  *
     7       C          0.99179780  *   1.14423823  *   0.38065448  *
     8       C         -5.37701188  *  -0.70488176  *  -0.27406832  *
     9       C         -1.43981882  *   1.79767255  *   0.48611417  *
    10       C          2.23491477  *   1.04258958  *  -0.51292054  *
    11       C         -0.57004862  *  -2.27137140  *  -0.44402217  *
    12       C         -5.10810277  *   0.72349245  *  -0.77856855  *
    13       C         -2.60628149  *   2.46271542  *  -0.26283106  *
    14       C          3.40262706  *   0.43623036  *   0.27219558  *
    15       C          0.62631954  *  -2.77842575  *   0.37153658  *
    16       C         -4.91673040  *   1.66776902  *   0.36345663  *
    17       C         -3.83650766  *   2.42301819  *   0.58409472  *
    18       C          4.62060843  *   0.22846695  *  -0.63221276  *
    19       C          1.86980553  *  -2.90206609  *  -0.50956298  *
    20       C          5.73692653  *  -0.38202910  *   0.15109295  *
    21       H         -2.67504254  *  -0.64533336  *  -0.89909269  *
    22       H         -3.27129088  *  -2.28408670  *  -1.17900884  *
    23       H         -4.51088350  *  -2.20479384  *   1.03650060  *
    24       H         -3.90420875  *  -0.56852385  *   1.31697028  *
    25       H         -1.60342109  *  -1.47100870  *   1.29610468  *
    26       H         -2.09203216  *  -3.11211186  *   0.86988168  *
    27       H          0.08805366  *   2.81364775  *  -0.68513446  *
    28       H         -0.36707186  *   1.22998757  *  -1.31855515  *
    29       H          1.22014296  *   1.73467446  *   1.28749136  *
    30       H          0.70202436  *   0.13641844  *   0.73947936  *
    31       H         -6.28282976  *  -0.70851317  *   0.36191262  *
    32       H         -5.60867239  *  -1.36190366  *  -1.13322769  *
    33       H         -1.24830329  *   2.32713044  *   1.43724883  *
    34       H         -1.72078542  *   0.76271626  *   0.76613281  *
    35       H          2.50973567  *   2.04257930  *  -0.89648280  *
    36       H          2.00802433  *   0.42727233  *  -1.40387971  *
    37       H         -0.77434986  *  -2.95915681  *  -1.28493316  *
    38       H         -0.32374462  *  -1.29571703  *  -0.90552034  *
    39       H         -5.96231824  *   1.06528760  *  -1.40020531  *
    40       H         -4.23543918  *   0.71798498  *  -1.46141453  *
    41       H         -2.76051088  *   1.96252410  *  -1.23910167  *
    42       H         -2.34999390  *   3.51327214  *  -0.50936147  *
    43       H          3.09957861  *  -0.53012355  *   0.72850776  *
    44       H          3.66880596  *   1.08922703  *   1.12670712  *
    45       H          0.82859824  *  -2.09265617  *   1.21646364  *
    46       H          0.38806550  *  -3.75724069  *   0.82846804  *
    47       H         -5.76386992  *   1.70189197  *   1.05070844  *
    48       H         -3.79243498  *   3.08203806  *   1.45265621  *
    49       H          4.36941786  *  -0.43199916  *  -1.49116576  *
    50       H          4.94591024  *   1.18725031  *  -1.09153428  *
    51       H          2.14296159  *  -1.93771557  *  -0.95278370  *
    52       H          2.73117332  *  -3.25549625  *   0.06908148  *
    53       H          1.71138761  *  -3.60981530  *  -1.33018841  *
    54       H          7.69697416  *  -0.58574470  *  -0.03044988  *

                             CARTESIAN COORDINATES

   1    O        6.919527584    -0.195682030    -0.497938412
   2    O        5.703748744    -0.973063936     1.197396466
   3    C       -2.989194432    -1.572735070    -0.381855820
   4    C       -4.195031577    -1.279727189     0.519010895
   5    C       -1.818350191    -2.132808309     0.436213504
   6    C       -0.175464204     1.783860148    -0.380730025
   7    C        0.991797801     1.144238233     0.380654483
   8    C       -5.377011881    -0.704881765    -0.274068321
   9    C       -1.439818822     1.797672553     0.486114173
  10    C        2.234914773     1.042589576    -0.512920542
  11    C       -0.570048623    -2.271371402    -0.444022167
  12    C       -5.108102766     0.723492447    -0.778568546
  13    C       -2.606281489     2.462715419    -0.262831063
  14    C        3.402627058     0.436230358     0.272195582
  15    C        0.626319541    -2.778425750     0.371536575
  16    C       -4.916730397     1.667769024     0.363456630
  17    C       -3.836507660     2.423018190     0.584094717
  18    C        4.620608426     0.228466945    -0.632212760
  19    C        1.869805532    -2.902066092    -0.509562979
  20    C        5.736926529    -0.382029101     0.151092955
  21    H       -2.675042543    -0.645333355    -0.899092690
  22    H       -3.271290877    -2.284086697    -1.179008840
  23    H       -4.510883497    -2.204793840     1.036500596
  24    H       -3.904208752    -0.568523848     1.316970283
  25    H       -1.603421089    -1.471008697     1.296104684
  26    H       -2.092032155    -3.112111859     0.869881678
  27    H        0.088053656     2.813647745    -0.685134459
  28    H       -0.367071856     1.229987566    -1.318555148
  29    H        1.220142956     1.734674460     1.287491359
  30    H        0.702024356     0.136418441     0.739479364
  31    H       -6.282829756    -0.708513169     0.361912617
  32    H       -5.608672386    -1.361903657    -1.133227689
  33    H       -1.248303290     2.327130444     1.437248832
  34    H       -1.720785419     0.762716260     0.766132811
  35    H        2.509735668     2.042579300    -0.896482799
  36    H        2.008024333     0.427272331    -1.403879712
  37    H       -0.774349860    -2.959156809    -1.284933163
  38    H       -0.323744625    -1.295717030    -0.905520338
  39    H       -5.962318240     1.065287598    -1.400205306
  40    H       -4.235439182     0.717984982    -1.461414528
  41    H       -2.760510882     1.962524098    -1.239101673
  42    H       -2.349993899     3.513272145    -0.509361475
  43    H        3.099578607    -0.530123552     0.728507761
  44    H        3.668805963     1.089227035     1.126707125
  45    H        0.828598237    -2.092656173     1.216463643
  46    H        0.388065502    -3.757240694     0.828468038
  47    H       -5.763869919     1.701891973     1.050708440
  48    H       -3.792434981     3.082038059     1.452656209
  49    H        4.369417859    -0.431999157    -1.491165759
  50    H        4.945910245     1.187250313    -1.091534280
  51    H        2.142961591    -1.937715570    -0.952783701
  52    H        2.731173316    -3.255496246     0.069081482
  53    H        1.711387612    -3.609815295    -1.330188405
  54    H        7.696974161    -0.585744697    -0.030449882


           Empirical Formula: C18 H34 O2  =    54 atoms



      MOLECULAR POINT GROUP   :   C1  


                  EIGENVALUES  
 -31.60520 -30.11531 -29.86005 -29.47088 -28.94990 -28.37246 -27.39967 -26.63546
 -25.49033 -24.40760 -23.38107 -22.24178 -21.64002 -20.48502 -20.27049 -20.16635
 -19.98057 -19.62841 -19.30535 -17.76500 -17.55043 -17.33426 -16.76614 -16.56545
 -16.37748 -16.01364 -15.66112 -15.23856 -15.21729 -14.75397 -14.73100 -14.51253
 -14.22247 -14.03405 -13.94897 -13.70307 -13.41861 -13.35071 -13.21008 -12.88731
 -12.76496 -12.57067 -12.50661 -12.22968 -12.13710 -12.05830 -11.99544 -11.91756
 -11.80523 -11.68474 -11.52022 -11.43414 -11.29150 -11.17989 -11.16496 -11.11168
 -10.96685 -10.90900  -9.61746   0.93969   1.20612   2.01028   3.09440   3.72196
   3.89549   3.90719   4.04301   4.12721   4.25971   4.31847   4.33458   4.42304
   4.60160   4.66614   4.76516   4.78907   4.80755   4.87848   5.01412   5.09994
   5.17530   5.36252   5.40480   5.42444   5.57436   5.60066   5.61828   5.77794
   5.83197   5.89358   5.92784   5.94343   5.96971   6.06648   6.11791   6.18783
   6.24525   6.27839   6.34233   6.36401   6.42539   6.43160   6.45231   6.51651
   6.59617   6.61354   6.63094   6.74620   6.81319   6.81571   6.84818   6.86248
   6.93637   7.09895


              NET ATOMIC CHARGES AND DIPOLE CONTRIBUTIONS

  ATOM NO.   TYPE          CHARGE      No. of ELECS.   s-Pop       p-Pop       
    1          O          -0.574597        6.5746     1.83875     4.73585
    2          O          -0.506933        6.5069     1.87628     4.63065
    3          C          -0.274525        4.2745     1.06009     3.21443
    4          C          -0.268663        4.2687     1.05954     3.20912
    5          C          -0.275530        4.2755     1.06009     3.21544
    6          C          -0.274407        4.2744     1.05980     3.21461
    7          C          -0.272133        4.2721     1.06038     3.21175
    8          C          -0.261019        4.2610     1.05926     3.20176
    9          C          -0.268478        4.2685     1.06036     3.20812
   10          C          -0.270005        4.2700     1.05957     3.21043
   11          C          -0.275840        4.2758     1.06056     3.21528
   12          C          -0.276828        4.2768     1.05377     3.22305
   13          C          -0.275384        4.2754     1.05364     3.22175
   14          C          -0.260304        4.2603     1.05870     3.20160
   15          C          -0.247589        4.2476     1.05526     3.19233
   16          C          -0.154464        4.1545     1.08929     3.06518
   17          C          -0.175089        4.1751     1.08785     3.08724
   18          C          -0.347514        4.3475     1.06673     3.28079
   19          C          -0.443897        4.4439     1.05276     3.39113
   20          C           0.646849        3.3532     1.12064     2.23251
   21          H           0.140115        0.8599     0.85988
   22          H           0.135280        0.8647     0.86472
   23          H           0.132586        0.8674     0.86741
   24          H           0.143943        0.8561     0.85606
   25          H           0.135252        0.8647     0.86475
   26          H           0.137778        0.8622     0.86222
   27          H           0.136727        0.8633     0.86327
   28          H           0.134246        0.8658     0.86575
   29          H           0.138901        0.8611     0.86110
   30          H           0.145622        0.8544     0.85438
   31          H           0.133858        0.8661     0.86614
   32          H           0.134286        0.8657     0.86571
   33          H           0.138848        0.8612     0.86115
   34          H           0.147747        0.8523     0.85225
   35          H           0.137092        0.8629     0.86291
   36          H           0.136413        0.8636     0.86359
   37          H           0.136515        0.8635     0.86349
   38          H           0.137519        0.8625     0.86248
   39          H           0.141564        0.8584     0.85844
   40          H           0.145202        0.8548     0.85480
   41          H           0.141441        0.8586     0.85856
   42          H           0.142935        0.8571     0.85707
   43          H           0.160802        0.8392     0.83920
   44          H           0.149663        0.8503     0.85034
   45          H           0.133412        0.8666     0.86659
   46          H           0.134560        0.8654     0.86544
   47          H           0.139740        0.8603     0.86026
   48          H           0.140495        0.8595     0.85950
   49          H           0.179189        0.8208     0.82081
   50          H           0.181611        0.8184     0.81839
   51          H           0.140919        0.8591     0.85908
   52          H           0.145282        0.8547     0.85472
   53          H           0.141371        0.8586     0.85863
   54          H           0.355434        0.6446     0.64457
 DIPOLE           X         Y         Z       TOTAL
 POINT-CHG.    -1.234     0.894    -1.690     2.276
 HYBRID         0.675    -0.217     0.041     0.710
 SUM           -0.559     0.677    -1.650     1.869


          ATOMIC ORBITAL ELECTRON POPULATIONS

     Atom    s        px        py        pz   
    1  O   1.83875   1.33877   1.78120   1.61588
    2  O   1.87628   1.84548   1.46002   1.32515
    3  C   1.06009   1.00654   1.14113   1.06676
    4  C   1.05954   1.00727   1.13357   1.06828
    5  C   1.06009   1.00195   1.14394   1.06955
    6  C   1.05980   1.00051   1.13753   1.07656
    7  C   1.06038   0.99520   1.14593   1.07063
    8  C   1.05926   1.06790   1.01872   1.11514
    9  C   1.06036   0.98774   1.14537   1.07500
   10  C   1.05957   1.00098   1.13877   1.07068
   11  C   1.06056   0.99673   1.14907   1.06948
   12  C   1.05377   1.15955   1.00455   1.05896
   13  C   1.05364   1.00343   1.13620   1.08212
   14  C   1.05870   0.98047   1.16363   1.05750
   15  C   1.05526   0.98908   1.14403   1.05922
   16  C   1.08929   1.04465   0.98905   1.03148
   17  C   1.08785   0.98579   1.04220   1.05925
   18  C   1.06673   1.02051   1.16730   1.09298
   19  C   1.05276   1.08753   1.17105   1.13255
   20  C   1.12064   0.77978   0.69419   0.75853
   21  H   0.85988
   22  H   0.86472
   23  H   0.86741
   24  H   0.85606
   25  H   0.86475
   26  H   0.86222
   27  H   0.86327
   28  H   0.86575
   29  H   0.86110
   30  H   0.85438
   31  H   0.86614
   32  H   0.86571
   33  H   0.86115
   34  H   0.85225
   35  H   0.86291
   36  H   0.86359
   37  H   0.86349
   38  H   0.86248
   39  H   0.85844
   40  H   0.85480
   41  H   0.85856
   42  H   0.85707
   43  H   0.83920
   44  H   0.85034
   45  H   0.86659
   46  H   0.86544
   47  H   0.86026
   48  H   0.85950
   49  H   0.82081
   50  H   0.81839
   51  H   0.85908
   52  H   0.85472
   53  H   0.85863
   54  H   0.64457

 **********************
 *                    *
 * JOB ENDED NORMALLY *
 *                    *
 **********************



 TOTAL JOB TIME:            48.59 SECONDS

 == MOPAC DONE ==
