 *******************************************************************************
 **                                                                           **
 **                              MOPAC v22.1.0                                **
 **                                                                           **
 *******************************************************************************
 **          Digital Object Identifier (DOI): 10.5281/zenodo.6511958          **
 **    Visit the DOI location for information on how to cite this program.    **
 *******************************************************************************

                              PM7 CALCULATION RESULTS

 *******************************************************************************
 *  CALCULATION DONE:                                Fri Feb  9 06:54:48 2024  *
 *  PM7        - The PM7 Hamiltonian to be used
 *  SINGLET    - SPIN STATE DEFINED AS A SINGLET
 *
 *
 *
 *                 CHARGE ON SYSTEM = 0
 *
 *
 *
 *  T=         - A TIME OF 172800.0 SECONDS REQUESTED
 *  DUMP=N     - RESTART FILE WRITTEN EVERY 7200.0 SECONDS REQUESTED
 *  LARGE      - EXPANDED OUTPUT TO BE PRINTED
 *******************************************************************************
  LARGE CHARGE=0 SINGLET  PM7
 trans  olejova

   ATOM   CHEMICAL          X               Y               Z
  NUMBER   SYMBOL      (ANGSTROMS)     (ANGSTROMS)     (ANGSTROMS)
 
     1       O         -6.30940000  *  -0.93590000  *  -1.33570000  *
     2       O         -6.15060000  *   0.36430000  *   0.52500000  *
     3       C          2.57360000  *  -2.09520000  *  -0.43520000  *
     4       C          2.87530000  *  -1.28490000  *  -1.69760000  *
     5       C          1.14430000  *  -2.64560000  *  -0.39360000  *
     6       C          0.31280000  *   2.11030000  *   0.06090000  *
     7       C         -1.13700000  *   1.95130000  *   0.52340000  *
     8       C          4.32850000  *  -0.80070000  *  -1.77260000  *
     9       C          1.12320000  *   2.94730000  *   1.05540000  *
    10       C         -1.94080000  *   1.08840000  *  -0.45170000  *
    11       C          0.80800000  *  -3.53780000  *   0.80570000  *
    12       C          4.78670000  *   0.09560000  *  -0.61580000  *
    13       C          2.57610000  *   3.15470000  *   0.61720000  *
    14       C         -3.38280000  *   0.90350000  *   0.03110000  *
    15       C          0.89750000  *  -2.86760000  *   2.17820000  *
    16       C          4.01630000  *   1.38130000  *  -0.52850000  *
    17       C          3.34720000  *   1.86950000  *   0.52730000  *
    18       C         -4.22050000  *   0.06790000  *  -0.93680000  *
    19       C         -0.00140000  *  -1.64990000  *   2.32220000  *
    20       C         -5.64700000  *  -0.11670000  *  -0.47890000  *
    21       H          2.72800000  *  -1.46660000  *   0.44770000  *
    22       H          3.28090000  *  -2.93030000  *  -0.36290000  *
    23       H          2.67400000  *  -1.90560000  *  -2.57940000  *
    24       H          2.19180000  *  -0.42980000  *  -1.75790000  *
    25       H          0.43320000  *  -1.81300000  *  -0.44740000  *
    26       H          0.97810000  *  -3.23850000  *  -1.30250000  *
    27       H          0.76210000  *   1.11690000  *  -0.05100000  *
    28       H          0.33430000  *   2.58870000  *  -0.92570000  *
    29       H         -1.15570000  *   1.49230000  *   1.51940000  *
    30       H         -1.60530000  *   2.93890000  *   0.61360000  *
    31       H          4.46690000  *  -0.26630000  *  -2.72130000  *
    32       H          4.99000000  *  -1.67520000  *  -1.81410000  *
    33       H          1.10080000  *   2.46810000  *   2.04240000  *
    34       H          0.65070000  *   3.93060000  *   1.17080000  *
    35       H         -1.46350000  *   0.10670000  *  -0.55740000  *
    36       H         -1.94190000  *   1.55730000  *  -1.44300000  *
    37       H         -0.20890000  *  -3.92710000  *   0.67040000  *
    38       H          1.47500000  *  -4.40870000  *   0.79870000  *
    39       H          5.84240000  *   0.34830000  *  -0.77450000  *
    40       H          4.74430000  *  -0.45010000  *   0.33310000  *
    41       H          3.07510000  *   3.80380000  *   1.34650000  *
    42       H          2.59770000  *   3.68230000  *  -0.34390000  *
    43       H         -3.85340000  *   1.88600000  *   0.16330000  *
    44       H         -3.38070000  *   0.42420000  *   1.01840000  *
    45       H          0.61620000  *  -3.60360000  *   2.94100000  *
    46       H          1.93350000  *  -2.58120000  *   2.39060000  *
    47       H          4.01760000  *   1.98060000  *  -1.43790000  *
    48       H          3.35970000  *   1.27720000  *   1.44130000  *
    49       H         -4.24200000  *   0.55420000  *  -1.91850000  *
    50       H         -3.76690000  *  -0.92410000  *  -1.04380000  *
    51       H         -1.03860000  *  -1.89260000  *   2.07090000  *
    52       H          0.02140000  *  -1.28570000  *   3.35430000  *
    53       H          0.32970000  *  -0.83110000  *   1.67730000  *
    54       H         -7.23740000  *  -1.08520000  *  -1.05480000  *
 


          CARTESIAN COORDINATES 

    NO.       ATOM           X           Y           Z

     1         O         -6.3094     -0.9359     -1.3357
     2         O         -6.1506      0.3643      0.5250
     3         C          2.5736     -2.0952     -0.4352
     4         C          2.8753     -1.2849     -1.6976
     5         C          1.1443     -2.6456     -0.3936
     6         C          0.3128      2.1103      0.0609
     7         C         -1.1370      1.9513      0.5234
     8         C          4.3285     -0.8007     -1.7726
     9         C          1.1232      2.9473      1.0554
    10         C         -1.9408      1.0884     -0.4517
    11         C          0.8080     -3.5378      0.8057
    12         C          4.7867      0.0956     -0.6158
    13         C          2.5761      3.1547      0.6172
    14         C         -3.3828      0.9035      0.0311
    15         C          0.8975     -2.8676      2.1782
    16         C          4.0163      1.3813     -0.5285
    17         C          3.3472      1.8695      0.5273
    18         C         -4.2205      0.0679     -0.9368
    19         C         -0.0014     -1.6499      2.3222
    20         C         -5.6470     -0.1167     -0.4789
    21         H          2.7280     -1.4666      0.4477
    22         H          3.2809     -2.9303     -0.3629
    23         H          2.6740     -1.9056     -2.5794
    24         H          2.1918     -0.4298     -1.7579
    25         H          0.4332     -1.8130     -0.4474
    26         H          0.9781     -3.2385     -1.3025
    27         H          0.7621      1.1169     -0.0510
    28         H          0.3343      2.5887     -0.9257
    29         H         -1.1557      1.4923      1.5194
    30         H         -1.6053      2.9389      0.6136
    31         H          4.4669     -0.2663     -2.7213
    32         H          4.9900     -1.6752     -1.8141
    33         H          1.1008      2.4681      2.0424
    34         H          0.6507      3.9306      1.1708
    35         H         -1.4635      0.1067     -0.5574
    36         H         -1.9419      1.5573     -1.4430
    37         H         -0.2089     -3.9271      0.6704
    38         H          1.4750     -4.4087      0.7987
    39         H          5.8424      0.3483     -0.7745
    40         H          4.7443     -0.4501      0.3331
    41         H          3.0751      3.8038      1.3465
    42         H          2.5977      3.6823     -0.3439
    43         H         -3.8534      1.8860      0.1633
    44         H         -3.3807      0.4242      1.0184
    45         H          0.6162     -3.6036      2.9410
    46         H          1.9335     -2.5812      2.3906
    47         H          4.0176      1.9806     -1.4379
    48         H          3.3597      1.2772      1.4413
    49         H         -4.2420      0.5542     -1.9185
    50         H         -3.7669     -0.9241     -1.0438
    51         H         -1.0386     -1.8926      2.0709
    52         H          0.0214     -1.2857      3.3543
    53         H          0.3297     -0.8311      1.6773
    54         H         -7.2374     -1.0852     -1.0548

 General Reference for PM7:
 "Optimization of Parameters for Semiempirical Methods VI: More Modifications to the 
 NDDO Approximations and Re-optimization of Parameters", J. J. P. Stewart, J. Mol. Mod., 1:32, 19 (2013)
 https://link.springer.com/article/10.1007/s00894-012-1667-x

           Empirical Formula: C18 H34 O2  =    54 atoms



      MOLECULAR POINT GROUP   :   C1  


 SINGLET STATE CALCULATION


      RHF CALCULATION, NO. OF DOUBLY OCCUPIED LEVELS = 59


          Geometry optimization using L-BFGS
 CYCLE:     1 TIME:   0.258 TIME LEFT:  2.00D  GRAD.:    88.847 HEAT: -154.8624
 CYCLE:     2 TIME:   0.215 TIME LEFT:  2.00D  GRAD.:    87.279 HEAT: -154.9406
 CYCLE:     3 TIME:   0.213 TIME LEFT:  2.00D  GRAD.:    39.427 HEAT: -158.2435
 CYCLE:     4 TIME:   0.217 TIME LEFT:  2.00D  GRAD.:    87.217 HEAT: -154.9407
 CYCLE:     5 TIME:   0.217 TIME LEFT:  2.00D  GRAD.:    87.055 HEAT: -155.3754
 CYCLE:     6 TIME:   0.227 TIME LEFT:  2.00D  GRAD.:   244.364 HEAT: -150.6235
 CYCLE:     7 TIME:   0.225 TIME LEFT:  2.00D  GRAD.:    39.240 HEAT: -158.8819
 CYCLE:     8 TIME:   0.213 TIME LEFT:  2.00D  GRAD.:    26.495 HEAT: -159.0502
 CYCLE:     9 TIME:   0.215 TIME LEFT:  2.00D  GRAD.:    21.316 HEAT: -159.2400
 CYCLE:    10 TIME:   0.213 TIME LEFT:  2.00D  GRAD.:    21.243 HEAT: -159.5568
 CYCLE:    11 TIME:   0.225 TIME LEFT:  2.00D  GRAD.:    21.840 HEAT: -159.8307
 CYCLE:    12 TIME:   0.232 TIME LEFT:  2.00D  GRAD.:    60.872 HEAT: -159.6518
 CYCLE:    13 TIME:   0.215 TIME LEFT:  2.00D  GRAD.:    16.300 HEAT: -160.1563
 CYCLE:    14 TIME:   0.213 TIME LEFT:  2.00D  GRAD.:    15.924 HEAT: -160.1967
 CYCLE:    15 TIME:   0.215 TIME LEFT:  2.00D  GRAD.:    17.438 HEAT: -160.3385
 CYCLE:    16 TIME:   0.225 TIME LEFT:  2.00D  GRAD.:    18.085 HEAT: -160.5279
 CYCLE:    17 TIME:   0.223 TIME LEFT:  2.00D  GRAD.:    43.592 HEAT: -160.2167
 CYCLE:    18 TIME:   0.219 TIME LEFT:  2.00D  GRAD.:    10.016 HEAT: -160.8059
 CYCLE:    19 TIME:   0.215 TIME LEFT:  2.00D  GRAD.:     6.537 HEAT: -160.8586
 CYCLE:    20 TIME:   0.217 TIME LEFT:  2.00D  GRAD.:     5.276 HEAT: -160.9389
 CYCLE:    21 TIME:   0.217 TIME LEFT:  2.00D  GRAD.:     8.168 HEAT: -160.9716
 CYCLE:    22 TIME:   0.213 TIME LEFT:  2.00D  GRAD.:     7.595 HEAT: -161.0008
 CYCLE:    23 TIME:   0.217 TIME LEFT:  2.00D  GRAD.:     4.637 HEAT: -161.0232
 CYCLE:    24 TIME:   0.223 TIME LEFT:  2.00D  GRAD.:     5.536 HEAT: -161.0475
 CYCLE:    25 TIME:   0.215 TIME LEFT:  2.00D  GRAD.:     6.241 HEAT: -161.0828
 CYCLE:    26 TIME:   0.227 TIME LEFT:  2.00D  GRAD.:     7.175 HEAT: -161.1327
 CYCLE:    27 TIME:   0.217 TIME LEFT:  2.00D  GRAD.:    15.357 HEAT: -161.1252
 CYCLE:    28 TIME:   0.215 TIME LEFT:  2.00D  GRAD.:     3.546 HEAT: -161.1729
 CYCLE:    29 TIME:   0.215 TIME LEFT:  2.00D  GRAD.:     3.093 HEAT: -161.1806
 CYCLE:    30 TIME:   0.215 TIME LEFT:  2.00D  GRAD.:     4.892 HEAT: -161.2003
 CYCLE:    31 TIME:   0.225 TIME LEFT:  2.00D  GRAD.:     4.769 HEAT: -161.2211
 CYCLE:    32 TIME:   0.213 TIME LEFT:  2.00D  GRAD.:     3.586 HEAT: -161.2388
 CYCLE:    33 TIME:   0.213 TIME LEFT:  2.00D  GRAD.:     3.636 HEAT: -161.2685
 CYCLE:    34 TIME:   0.219 TIME LEFT:  2.00D  GRAD.:     6.563 HEAT: -161.2979
 CYCLE:    35 TIME:   0.211 TIME LEFT:  2.00D  GRAD.:     5.158 HEAT: -161.3268
 CYCLE:    36 TIME:   0.213 TIME LEFT:  2.00D  GRAD.:     5.531 HEAT: -161.3501
 CYCLE:    37 TIME:   0.211 TIME LEFT:  2.00D  GRAD.:     4.211 HEAT: -161.3679
 CYCLE:    38 TIME:   0.213 TIME LEFT:  2.00D  GRAD.:     3.777 HEAT: -161.3835
 CYCLE:    39 TIME:   0.215 TIME LEFT:  2.00D  GRAD.:     4.148 HEAT: -161.4130
 CYCLE:    40 TIME:   0.213 TIME LEFT:  2.00D  GRAD.:     4.010 HEAT: -161.4389
 CYCLE:    41 TIME:   0.217 TIME LEFT:  2.00D  GRAD.:    13.777 HEAT: -161.4294
 CYCLE:    42 TIME:   0.213 TIME LEFT:  2.00D  GRAD.:     3.958 HEAT: -161.4648
 CYCLE:    43 TIME:   0.219 TIME LEFT:  2.00D  GRAD.:     2.346 HEAT: -161.4729
 CYCLE:    44 TIME:   0.215 TIME LEFT:  2.00D  GRAD.:     2.936 HEAT: -161.4813
 CYCLE:    45 TIME:   0.213 TIME LEFT:  2.00D  GRAD.:     4.224 HEAT: -161.4919
 CYCLE:    46 TIME:   0.211 TIME LEFT:  2.00D  GRAD.:     3.190 HEAT: -161.5076
 CYCLE:    47 TIME:   0.213 TIME LEFT:  2.00D  GRAD.:     3.274 HEAT: -161.5238
 CYCLE:    48 TIME:   0.213 TIME LEFT:  2.00D  GRAD.:     3.484 HEAT: -161.5437
 CYCLE:    49 TIME:   0.213 TIME LEFT:  2.00D  GRAD.:     5.302 HEAT: -161.5542
 CYCLE:    50 TIME:   0.221 TIME LEFT:  2.00D  GRAD.:     3.018 HEAT: -161.5682
 CYCLE:    51 TIME:   0.209 TIME LEFT:  2.00D  GRAD.:     3.544 HEAT: -161.5838
 CYCLE:    52 TIME:   0.213 TIME LEFT:  2.00D  GRAD.:     7.332 HEAT: -161.5914
 CYCLE:    53 TIME:   0.215 TIME LEFT:  2.00D  GRAD.:     4.330 HEAT: -161.6022
 CYCLE:    54 TIME:   0.213 TIME LEFT:  2.00D  GRAD.:     3.694 HEAT: -161.6172
 CYCLE:    55 TIME:   0.213 TIME LEFT:  2.00D  GRAD.:     5.098 HEAT: -161.6303
 CYCLE:    56 TIME:   0.213 TIME LEFT:  2.00D  GRAD.:     5.965 HEAT: -161.6567
 CYCLE:    57 TIME:   0.223 TIME LEFT:  2.00D  GRAD.:    16.767 HEAT: -161.6542
 CYCLE:    58 TIME:   0.213 TIME LEFT:  2.00D  GRAD.:     4.508 HEAT: -161.7004
 CYCLE:    59 TIME:   0.215 TIME LEFT:  2.00D  GRAD.:     3.659 HEAT: -161.7167
 CYCLE:    60 TIME:   0.211 TIME LEFT:  2.00D  GRAD.:     4.745 HEAT: -161.7485
 CYCLE:    61 TIME:   0.215 TIME LEFT:  2.00D  GRAD.:     5.128 HEAT: -161.7811
 CYCLE:    62 TIME:   0.217 TIME LEFT:  2.00D  GRAD.:     7.942 HEAT: -161.8053
 CYCLE:    63 TIME:   0.219 TIME LEFT:  2.00D  GRAD.:     4.360 HEAT: -161.8395
 CYCLE:    64 TIME:   0.221 TIME LEFT:  2.00D  GRAD.:     6.191 HEAT: -161.8598
 CYCLE:    65 TIME:   0.219 TIME LEFT:  2.00D  GRAD.:     3.659 HEAT: -161.8807
 CYCLE:    66 TIME:   0.213 TIME LEFT:  2.00D  GRAD.:     3.018 HEAT: -161.8971
 CYCLE:    67 TIME:   0.217 TIME LEFT:  2.00D  GRAD.:     4.262 HEAT: -161.9141
 CYCLE:    68 TIME:   0.215 TIME LEFT:  2.00D  GRAD.:     5.083 HEAT: -161.9296
 CYCLE:    69 TIME:   0.217 TIME LEFT:  2.00D  GRAD.:     6.910 HEAT: -161.9368
 CYCLE:    70 TIME:   0.211 TIME LEFT:  2.00D  GRAD.:     2.495 HEAT: -161.9478
 CYCLE:    71 TIME:   0.215 TIME LEFT:  2.00D  GRAD.:     2.252 HEAT: -161.9524
 CYCLE:    72 TIME:   0.211 TIME LEFT:  2.00D  GRAD.:     2.816 HEAT: -161.9602
 CYCLE:    73 TIME:   0.215 TIME LEFT:  2.00D  GRAD.:     5.227 HEAT: -161.9713
 CYCLE:    74 TIME:   0.211 TIME LEFT:  2.00D  GRAD.:     4.245 HEAT: -161.9805
 CYCLE:    75 TIME:   0.213 TIME LEFT:  2.00D  GRAD.:     2.818 HEAT: -161.9892
 CYCLE:    76 TIME:   0.215 TIME LEFT:  2.00D  GRAD.:     3.366 HEAT: -162.0029
 CYCLE:    77 TIME:   0.215 TIME LEFT:  2.00D  GRAD.:     3.015 HEAT: -162.0134
 CYCLE:    78 TIME:   0.219 TIME LEFT:  2.00D  GRAD.:     4.074 HEAT: -162.0306
 CYCLE:    79 TIME:   0.211 TIME LEFT:  2.00D  GRAD.:     4.184 HEAT: -162.0435
 CYCLE:    80 TIME:   0.215 TIME LEFT:  2.00D  GRAD.:     2.590 HEAT: -162.0629
 CYCLE:    81 TIME:   0.219 TIME LEFT:  2.00D  GRAD.:     2.787 HEAT: -162.0796
 CYCLE:    82 TIME:   0.221 TIME LEFT:  2.00D  GRAD.:    11.442 HEAT: -162.0669
 CYCLE:    83 TIME:   0.215 TIME LEFT:  2.00D  GRAD.:     2.707 HEAT: -162.0915
 CYCLE:    84 TIME:   0.213 TIME LEFT:  2.00D  GRAD.:     1.780 HEAT: -162.0949
 CYCLE:    85 TIME:   0.217 TIME LEFT:  2.00D  GRAD.:     2.438 HEAT: -162.1007
 CYCLE:    86 TIME:   0.211 TIME LEFT:  2.00D  GRAD.:     2.821 HEAT: -162.1074
 CYCLE:    87 TIME:   0.217 TIME LEFT:  2.00D  GRAD.:     9.889 HEAT: -162.1082
 CYCLE:    88 TIME:   0.223 TIME LEFT:  2.00D  GRAD.:     3.196 HEAT: -162.1252
 CYCLE:    89 TIME:   0.225 TIME LEFT:  2.00D  GRAD.:     2.053 HEAT: -162.1311
 CYCLE:    90 TIME:   0.217 TIME LEFT:  2.00D  GRAD.:     2.529 HEAT: -162.1373
 CYCLE:    91 TIME:   0.215 TIME LEFT:  2.00D  GRAD.:     8.090 HEAT: -162.1416
 CYCLE:    92 TIME:   0.215 TIME LEFT:  2.00D  GRAD.:     3.448 HEAT: -162.1514
 CYCLE:    93 TIME:   0.211 TIME LEFT:  2.00D  GRAD.:     2.219 HEAT: -162.1574
 CYCLE:    94 TIME:   0.213 TIME LEFT:  2.00D  GRAD.:     2.794 HEAT: -162.1645
 CYCLE:    95 TIME:   0.217 TIME LEFT:  2.00D  GRAD.:     2.934 HEAT: -162.1727
 CYCLE:    96 TIME:   0.215 TIME LEFT:  2.00D  GRAD.:     3.308 HEAT: -162.1863
 CYCLE:    97 TIME:   0.221 TIME LEFT:  2.00D  GRAD.:     6.487 HEAT: -162.1906
 CYCLE:    98 TIME:   0.213 TIME LEFT:  2.00D  GRAD.:     2.594 HEAT: -162.2050
 CYCLE:    99 TIME:   0.213 TIME LEFT:  2.00D  GRAD.:     2.333 HEAT: -162.2118
 CYCLE:   100 TIME:   0.217 TIME LEFT:  2.00D  GRAD.:     3.320 HEAT: -162.2199
 CYCLE:   101 TIME:   0.217 TIME LEFT:  2.00D  GRAD.:     4.255 HEAT: -162.2282
 CYCLE:   102 TIME:   0.215 TIME LEFT:  2.00D  GRAD.:     5.907 HEAT: -162.2328
 CYCLE:   103 TIME:   0.217 TIME LEFT:  2.00D  GRAD.:     2.581 HEAT: -162.2400
 CYCLE:   104 TIME:   0.217 TIME LEFT:  2.00D  GRAD.:     2.304 HEAT: -162.2446
 CYCLE:   105 TIME:   0.209 TIME LEFT:  2.00D  GRAD.:     2.394 HEAT: -162.2483
 CYCLE:   106 TIME:   0.223 TIME LEFT:  2.00D  GRAD.:     3.061 HEAT: -162.2580
 CYCLE:   107 TIME:   0.221 TIME LEFT:  2.00D  GRAD.:    10.431 HEAT: -162.2494
 CYCLE:   108 TIME:   0.219 TIME LEFT:  2.00D  GRAD.:    15.618 HEAT: -162.2277
 CYCLE:   109 TIME:   0.213 TIME LEFT:  2.00D  GRAD.:     5.080 HEAT: -162.2692
 CYCLE:   110 TIME:   0.219 TIME LEFT:  2.00D  GRAD.:     2.424 HEAT: -162.2746
 CYCLE:   111 TIME:   0.217 TIME LEFT:  2.00D  GRAD.:     5.218 HEAT: -162.2768
 CYCLE:   112 TIME:   0.211 TIME LEFT:  2.00D  GRAD.:     2.521 HEAT: -162.2850
 CYCLE:   113 TIME:   0.223 TIME LEFT:  2.00D  GRAD.:     3.562 HEAT: -162.2889
 CYCLE:   114 TIME:   0.213 TIME LEFT:  2.00D  GRAD.:     2.479 HEAT: -162.3010
 CYCLE:   115 TIME:   0.219 TIME LEFT:  2.00D  GRAD.:     4.727 HEAT: -162.3144
 CYCLE:   116 TIME:   0.215 TIME LEFT:  2.00D  GRAD.:     3.267 HEAT: -162.3282
 CYCLE:   117 TIME:   0.219 TIME LEFT:  2.00D  GRAD.:     3.029 HEAT: -162.3363
 CYCLE:   118 TIME:   0.221 TIME LEFT:  2.00D  GRAD.:     6.071 HEAT: -162.3356
 CYCLE:   119 TIME:   0.211 TIME LEFT:  2.00D  GRAD.:     1.791 HEAT: -162.3448
 CYCLE:   120 TIME:   0.215 TIME LEFT:  2.00D  GRAD.:     2.364 HEAT: -162.3475
 CYCLE:   121 TIME:   0.215 TIME LEFT:  2.00D  GRAD.:     1.999 HEAT: -162.3525
 CYCLE:   122 TIME:   0.223 TIME LEFT:  2.00D  GRAD.:     2.884 HEAT: -162.3564
 CYCLE:   123 TIME:   0.217 TIME LEFT:  2.00D  GRAD.:    10.333 HEAT: -162.3465
 CYCLE:   124 TIME:   0.211 TIME LEFT:  2.00D  GRAD.:     1.427 HEAT: -162.3647
 CYCLE:   125 TIME:   0.213 TIME LEFT:  2.00D  GRAD.:     1.098 HEAT: -162.3659
 CYCLE:   126 TIME:   0.232 TIME LEFT:  2.00D  GRAD.:     4.935 HEAT: -162.3549
 CYCLE:   127 TIME:   0.219 TIME LEFT:  2.00D  GRAD.:     1.365 HEAT: -162.3707
 CYCLE:   128 TIME:   0.217 TIME LEFT:  2.00D  GRAD.:     2.307 HEAT: -162.3713
 CYCLE:   129 TIME:   0.211 TIME LEFT:  2.00D  GRAD.:     0.975 HEAT: -162.3732

 -------------------------------------------------------------------------------
 LARGE CHARGE=0 SINGLET  PM7
 trans  olejova



     HERBERTS TEST WAS SATISFIED IN BFGS                      
     SCF FIELD WAS ACHIEVED                                   


                              PM7 CALCULATION
                                                       MOPAC v22.1.0 Windows
                                                       Fri Feb  9 06:55:16 2024




          FINAL HEAT OF FORMATION =       -162.37319 KCAL/MOL =    -679.36942 KJ/MOL


          COSMO AREA              =        342.84 SQUARE ANGSTROMS
          COSMO VOLUME            =        424.41 CUBIC ANGSTROMS

          GRADIENT NORM           =          0.97472          =       0.13264 PER ATOM
          IONIZATION POTENTIAL    =          9.584379 EV
          HOMO LUMO ENERGIES (EV) =         -9.584  0.964
          NO. OF FILLED LEVELS    =         59
          MOLECULAR WEIGHT        =        282.4654         POINT GROUP:  C1  

          MOLECULAR DIMENSIONS (Angstroms)

            Atom       Atom       Distance
            H    54    H    39    13.13030
            H    38    H    34     7.85649
            H    31    H    52     6.27458


          SCF CALCULATIONS        =        130
 
          WALL-CLOCK TIME         =     28.115 SECONDS
          COMPUTATION TIME        =          1 MINUTE AND 37.078 SECONDS




   ATOM   CHEMICAL          X               Y               Z
  NUMBER   SYMBOL      (ANGSTROMS)     (ANGSTROMS)     (ANGSTROMS)
 
     1       O         -6.19398935  *  -0.98017943  *  -1.40112892  *
     2       O         -6.01729709  *   0.13117116  *   0.51940260  *
     3       C          2.47802564  *  -2.05890953  *  -0.56638016  *
     4       C          2.81679736  *  -1.10396210  *  -1.71747234  *
     5       C          0.95885946  *  -2.22537788  *  -0.43552958  *
     6       C          0.41277162  *   1.91826618  *   0.10606373  *
     7       C         -1.04788431  *   1.77637733  *   0.54769930  *
     8       C          4.32005274  *  -0.80323242  *  -1.79552948  *
     9       C          1.19603692  *   2.78586739  *   1.09938331  *
    10       C         -1.81133818  *   0.83140895  *  -0.38803811  *
    11       C          0.58304264  *  -3.13522751  *   0.74167080  *
    12       C          4.81789597  *   0.04120956  *  -0.60961750  *
    13       C          2.64150655  *   3.00582737  *   0.62592435  *
    14       C         -3.25118606  *   0.64526389  *   0.10196142  *
    15       C          0.78615055  *  -2.46180893  *   2.10724332  *
    16       C          4.08037997  *   1.33866009  *  -0.52921778  *
    17       C          3.38738666  *   1.71279800  *   0.54995690  *
    18       C         -4.04661691  *  -0.21337504  *  -0.88466013  *
    19       C         -0.26462958  *  -1.38573656  *   2.37795878  *
    20       C         -5.47660713  *  -0.29889904  *  -0.46394696  *
    21       H          2.89466629  *  -1.66813938  *   0.38156801  *
    22       H          2.95908125  *  -3.04015127  *  -0.72825299  *
    23       H          2.47594857  *  -1.53794356  *  -2.67589745  *
    24       H          2.25618760  *  -0.15610657  *  -1.59653519  *
    25       H          0.48347005  *  -1.23366929  *  -0.30888372  *
    26       H          0.54646466  *  -2.64123783  *  -1.37360033  *
    27       H          0.89302361  *   0.92290490  *   0.02449383  *
    28       H          0.46490625  *   2.35662140  *  -0.90725969  *
    29       H         -1.09618252  *   1.40526979  *   1.58934912  *
    30       H         -1.53545074  *   2.76970662  *   0.56150943  *
    31       H          4.53729053  *  -0.27278016  *  -2.74234054  *
    32       H          4.89138532  *  -1.74910201  *  -1.83982711  *
    33       H          1.19403926  *   2.31179684  *   2.09883798  *
    34       H          0.69485927  *   3.76409533  *   1.22380900  *
    35       H         -1.29935833  *  -0.14878963  *  -0.44414030  *
    36       H         -1.80342575  *   1.23718462  *  -1.41715132  *
    37       H         -0.47230064  *  -3.45230625  *   0.64035675  *
    38       H          1.17953245  *  -4.06602145  *   0.69657212  *
    39       H          5.90458883  *   0.23743013  *  -0.72400130  *
    40       H          4.72301071  *  -0.53917159  *   0.32933348  *
    41       H          3.16336933  *   3.69117819  *   1.32692457  *
    42       H          2.63884669  *   3.53112042  *  -0.34955202  *
    43       H         -3.74243519  *   1.62998906  *   0.23503142  *
    44       H         -3.26154710  *   0.17962797  *   1.10780951  *
    45       H          0.74520995  *  -3.22912627  *   2.90386554  *
    46       H          1.79966182  *  -2.02149117  *   2.16567297  *
    47       H          4.14240359  *   1.95552938  *  -1.42288268  *
    48       H          3.32157934  *   1.09217370  *   1.44114964  *
    49       H         -3.98224458  *   0.20308561  *  -1.91450133  *
    50       H         -3.61345454  *  -1.23510724  *  -0.96066839  *
    51       H         -1.27986501  *  -1.79273489  *   2.32372355  *
    52       H         -0.13497409  *  -0.94336395  *   3.37120163  *
    53       H         -0.19594902  *  -0.57146217  *   1.64579398  *
    54       H         -7.15257828  *  -1.06793600  *  -1.18355797  *

                             CARTESIAN COORDINATES

   1    O       -6.193989345    -0.980179432    -1.401128919
   2    O       -6.017297086     0.131171159     0.519402599
   3    C        2.478025635    -2.058909533    -0.566380161
   4    C        2.816797355    -1.103962100    -1.717472344
   5    C        0.958859455    -2.225377882    -0.435529575
   6    C        0.412771622     1.918266184     0.106063728
   7    C       -1.047884309     1.776377333     0.547699298
   8    C        4.320052736    -0.803232424    -1.795529479
   9    C        1.196036919     2.785867394     1.099383306
  10    C       -1.811338184     0.831408950    -0.388038112
  11    C        0.583042645    -3.135227509     0.741670801
  12    C        4.817895965     0.041209561    -0.609617502
  13    C        2.641506547     3.005827372     0.625924346
  14    C       -3.251186055     0.645263895     0.101961423
  15    C        0.786150554    -2.461808930     2.107243324
  16    C        4.080379971     1.338660091    -0.529217782
  17    C        3.387386664     1.712798002     0.549956900
  18    C       -4.046616910    -0.213375041    -0.884660127
  19    C       -0.264629576    -1.385736562     2.377958783
  20    C       -5.476607129    -0.298899036    -0.463946959
  21    H        2.894666289    -1.668139381     0.381568007
  22    H        2.959081247    -3.040151265    -0.728252990
  23    H        2.475948573    -1.537943556    -2.675897452
  24    H        2.256187601    -0.156106574    -1.596535192
  25    H        0.483470054    -1.233669293    -0.308883724
  26    H        0.546464656    -2.641237829    -1.373600332
  27    H        0.893023610     0.922904905     0.024493833
  28    H        0.464906248     2.356621398    -0.907259695
  29    H       -1.096182516     1.405269792     1.589349120
  30    H       -1.535450740     2.769706616     0.561509432
  31    H        4.537290525    -0.272780160    -2.742340544
  32    H        4.891385316    -1.749102014    -1.839827113
  33    H        1.194039256     2.311796837     2.098837976
  34    H        0.694859274     3.764095326     1.223808997
  35    H       -1.299358330    -0.148789626    -0.444140297
  36    H       -1.803425747     1.237184617    -1.417151325
  37    H       -0.472300644    -3.452306250     0.640356746
  38    H        1.179532445    -4.066021449     0.696572123
  39    H        5.904588828     0.237430130    -0.724001298
  40    H        4.723010705    -0.539171594     0.329333479
  41    H        3.163369326     3.691178193     1.326924570
  42    H        2.638846687     3.531120425    -0.349552023
  43    H       -3.742435186     1.629989057     0.235031424
  44    H       -3.261547100     0.179627969     1.107809514
  45    H        0.745209953    -3.229126272     2.903865536
  46    H        1.799661817    -2.021491173     2.165672966
  47    H        4.142403587     1.955529378    -1.422882682
  48    H        3.321579340     1.092173703     1.441149640
  49    H       -3.982244577     0.203085607    -1.914501331
  50    H       -3.613454538    -1.235107235    -0.960668387
  51    H       -1.279865008    -1.792734886     2.323723552
  52    H       -0.134974091    -0.943363951     3.371201633
  53    H       -0.195949020    -0.571462167     1.645793980
  54    H       -7.152578276    -1.067935997    -1.183557968


           Empirical Formula: C18 H34 O2  =    54 atoms



      MOLECULAR POINT GROUP   :   C1  


                  EIGENVALUES  
 -31.58428 -30.09376 -29.83348 -29.50746 -29.02462 -28.48222 -27.26035 -26.55444
 -25.42381 -24.35613 -23.54236 -22.27945 -21.58864 -21.13726 -20.42515 -20.02519
 -19.55169 -19.37126 -18.93120 -18.85105 -17.44895 -17.20100 -16.58367 -16.37213
 -16.31586 -15.83606 -15.55809 -15.36669 -15.23553 -14.93306 -14.87326 -14.44910
 -14.31125 -13.84852 -13.75903 -13.74478 -13.57136 -13.39812 -13.23480 -12.97902
 -12.81777 -12.60314 -12.42289 -12.29231 -12.22547 -12.12143 -12.02958 -11.86370
 -11.65709 -11.58507 -11.54058 -11.48941 -11.42366 -11.20619 -11.13272 -11.12860
 -10.99491 -10.87768  -9.58438   0.96357   1.22946   2.03221   3.09884   3.74221
   3.88482   3.98602   4.06047   4.13157   4.15081   4.28370   4.31554   4.47054
   4.63910   4.64088   4.67723   4.72133   4.78254   4.82087   4.94203   5.13162
   5.20116   5.42263   5.43879   5.49929   5.53547   5.65250   5.68682   5.76047
   5.80808   5.90160   5.92640   5.93996   5.96505   5.99801   6.08375   6.09828
   6.16194   6.24993   6.33972   6.39018   6.39331   6.49228   6.50498   6.55025
   6.58813   6.61016   6.63372   6.64078   6.69517   6.72969   6.81606   6.90866
   6.95442   7.18548


              NET ATOMIC CHARGES AND DIPOLE CONTRIBUTIONS

  ATOM NO.   TYPE          CHARGE      No. of ELECS.   s-Pop       p-Pop       
    1          O          -0.577642        6.5776     1.83859     4.73906
    2          O          -0.507073        6.5071     1.87608     4.63099
    3          C          -0.268510        4.2685     1.05940     3.20911
    4          C          -0.271785        4.2718     1.05986     3.21193
    5          C          -0.273708        4.2737     1.06003     3.21367
    6          C          -0.277966        4.2780     1.06042     3.21755
    7          C          -0.273152        4.2732     1.05984     3.21331
    8          C          -0.259381        4.2594     1.05904     3.20034
    9          C          -0.259566        4.2596     1.05926     3.20030
   10          C          -0.271631        4.2716     1.06012     3.21151
   11          C          -0.269636        4.2696     1.05952     3.21012
   12          C          -0.276569        4.2766     1.05434     3.22222
   13          C          -0.280136        4.2801     1.05445     3.22569
   14          C          -0.254865        4.2549     1.05791     3.19695
   15          C          -0.246894        4.2469     1.05490     3.19199
   16          C          -0.164115        4.1641     1.08898     3.07514
   17          C          -0.164736        4.1647     1.08941     3.07533
   18          C          -0.346010        4.3460     1.06649     3.27952
   19          C          -0.443044        4.4430     1.05284     3.39021
   20          C           0.646192        3.3538     1.12099     2.23281
   21          H           0.140296        0.8597     0.85970
   22          H           0.134419        0.8656     0.86558
   23          H           0.131781        0.8682     0.86822
   24          H           0.142448        0.8576     0.85755
   25          H           0.137202        0.8628     0.86280
   26          H           0.131404        0.8686     0.86860
   27          H           0.144334        0.8557     0.85567
   28          H           0.137893        0.8621     0.86211
   29          H           0.139216        0.8608     0.86078
   30          H           0.139104        0.8609     0.86090
   31          H           0.133293        0.8667     0.86671
   32          H           0.134030        0.8660     0.86597
   33          H           0.137699        0.8623     0.86230
   34          H           0.134768        0.8652     0.86523
   35          H           0.139561        0.8604     0.86044
   36          H           0.138830        0.8612     0.86117
   37          H           0.133749        0.8663     0.86625
   38          H           0.132502        0.8675     0.86750
   39          H           0.142236        0.8578     0.85776
   40          H           0.142881        0.8571     0.85712
   41          H           0.145256        0.8547     0.85474
   42          H           0.141960        0.8580     0.85804
   43          H           0.152836        0.8472     0.84716
   44          H           0.152153        0.8478     0.84785
   45          H           0.129863        0.8701     0.87014
   46          H           0.134831        0.8652     0.86517
   47          H           0.141884        0.8581     0.85812
   48          H           0.144437        0.8556     0.85556
   49          H           0.181273        0.8187     0.81873
   50          H           0.182449        0.8176     0.81755
   51          H           0.142161        0.8578     0.85784
   52          H           0.138401        0.8616     0.86160
   53          H           0.149359        0.8506     0.85064
   54          H           0.355717        0.6443     0.64428
 DIPOLE           X         Y         Z       TOTAL
 POINT-CHG.     2.173    -0.164    -1.226     2.500
 HYBRID        -0.713    -0.092     0.012     0.719
 SUM            1.460    -0.256    -1.214     1.915


          ATOMIC ORBITAL ELECTRON POPULATIONS

     Atom    s        px        py        pz   
    1  O   1.83859   1.39240   1.75587   1.59079
    2  O   1.87608   1.72703   1.52601   1.37796
    3  C   1.05940   1.01868   1.10370   1.08673
    4  C   1.05986   1.02229   1.10938   1.08026
    5  C   1.06003   1.02657   1.11618   1.07093
    6  C   1.06042   1.00243   1.12700   1.08812
    7  C   1.05984   1.01174   1.10833   1.09325
    8  C   1.05904   1.02643   1.10721   1.06669
    9  C   1.05926   1.00152   1.11460   1.08419
   10  C   1.06012   1.00433   1.11326   1.09393
   11  C   1.05952   1.14480   1.07167   0.99365
   12  C   1.05434   1.10203   1.02927   1.09093
   13  C   1.05445   1.01859   1.05169   1.15540
   14  C   1.05791   1.00659   1.11826   1.07210
   15  C   1.05490   1.08464   1.06720   1.04016
   16  C   1.08898   1.00945   1.01490   1.05079
   17  C   1.08941   0.99881   1.02085   1.05567
   18  C   1.06649   0.99422   1.15820   1.12710
   19  C   1.05284   1.11174   1.11221   1.16626
   20  C   1.12099   0.84050   0.66578   0.72654
   21  H   0.85970
   22  H   0.86558
   23  H   0.86822
   24  H   0.85755
   25  H   0.86280
   26  H   0.86860
   27  H   0.85567
   28  H   0.86211
   29  H   0.86078
   30  H   0.86090
   31  H   0.86671
   32  H   0.86597
   33  H   0.86230
   34  H   0.86523
   35  H   0.86044
   36  H   0.86117
   37  H   0.86625
   38  H   0.86750
   39  H   0.85776
   40  H   0.85712
   41  H   0.85474
   42  H   0.85804
   43  H   0.84716
   44  H   0.84785
   45  H   0.87014
   46  H   0.86517
   47  H   0.85812
   48  H   0.85556
   49  H   0.81873
   50  H   0.81755
   51  H   0.85784
   52  H   0.86160
   53  H   0.85064
   54  H   0.64428

 **********************
 *                    *
 * JOB ENDED NORMALLY *
 *                    *
 **********************



 TOTAL JOB TIME:            28.13 SECONDS

 == MOPAC DONE ==
