 *******************************************************************************
 **                                                                           **
 **                              MOPAC v22.1.0                                **
 **                                                                           **
 *******************************************************************************
 **          Digital Object Identifier (DOI): 10.5281/zenodo.6511958          **
 **    Visit the DOI location for information on how to cite this program.    **
 *******************************************************************************

                              PM7 CALCULATION RESULTS

 *******************************************************************************
 *  CALCULATION DONE:                                Fri Mar 15 21:23:45 2024  *
 *  PM7        - The PM7 Hamiltonian to be used
 *  SINGLET    - SPIN STATE DEFINED AS A SINGLET
 *
 *
 *
 *                 CHARGE ON SYSTEM = 0
 *
 *
 *
 *  PRECISE    - TIGHTER CRITERIA TO BE USED
 *  T=         - A TIME OF 172800.0 SECONDS REQUESTED
 *  DUMP=N     - RESTART FILE WRITTEN EVERY 7200.0 SECONDS REQUESTED
 *  LARGE      - EXPANDED OUTPUT TO BE PRINTED
 *******************************************************************************
 PRECISE LARGE CHARGE=0 SINGLET  PM7
 m-nitrotoluen

   ATOM   CHEMICAL          X               Y               Z
  NUMBER   SYMBOL      (ANGSTROMS)     (ANGSTROMS)     (ANGSTROMS)
 
     1       C          1.14262000  *  -0.13275000  *   0.07470000  *
     2       C          0.90218000  *  -1.51458000  *   0.06521000  *
     3       C         -0.40535000  *  -2.01192000  *  -0.00047000  *
     4       C         -1.47452000  *  -1.11866000  *  -0.06430000  *
     5       C         -1.23959000  *   0.25862000  *  -0.05847000  *
     6       C          0.06576000  *   0.76279000  *   0.02439000  *
     7       C          0.31068000  *   2.24330000  *  -0.00817000  *
     8       H          2.15940000  *   0.25395000  *   0.11960000  *
     9       N          2.03304000  *  -2.44949000  *   0.11609000  *
    10       H         -0.60554000  *  -3.08119000  *  -0.00855000  *
    11       H         -2.49383000  *  -1.49402000  *  -0.12349000  *
    12       H         -2.08650000  *   0.94035000  *  -0.11921000  *
    13       H          0.43304000  *   2.57866000  *  -1.04263000  *
    14       H          1.21165000  *   2.50253000  *   0.55769000  *
    15       H         -0.52478000  *   2.78776000  *   0.44428000  *
    16       O          3.17566000  *  -1.97209000  *   0.17048000  *
    17       O          1.78008000  *  -3.66301000  *   0.10017000  *
 


          CARTESIAN COORDINATES 

    NO.       ATOM           X           Y           Z

     1         C          1.1426     -0.1328      0.0747
     2         C          0.9022     -1.5146      0.0652
     3         C         -0.4054     -2.0119     -0.0005
     4         C         -1.4745     -1.1187     -0.0643
     5         C         -1.2396      0.2586     -0.0585
     6         C          0.0658      0.7628      0.0244
     7         C          0.3107      2.2433     -0.0082
     8         H          2.1594      0.2540      0.1196
     9         N          2.0330     -2.4495      0.1161
    10         H         -0.6055     -3.0812     -0.0086
    11         H         -2.4938     -1.4940     -0.1235
    12         H         -2.0865      0.9404     -0.1192
    13         H          0.4330      2.5787     -1.0426
    14         H          1.2117      2.5025      0.5577
    15         H         -0.5248      2.7878      0.4443
    16         O          3.1757     -1.9721      0.1705
    17         O          1.7801     -3.6630      0.1002

 General Reference for PM7:
 "Optimization of Parameters for Semiempirical Methods VI: More Modifications to the 
 NDDO Approximations and Re-optimization of Parameters", J. J. P. Stewart, J. Mol. Mod., 1:32, 19 (2013)
 https://link.springer.com/article/10.1007/s00894-012-1667-x

           Empirical Formula: C7 H7 N O2  =    17 atoms



      MOLECULAR POINT GROUP   :   C1  


 SINGLET STATE CALCULATION


      RHF CALCULATION, NO. OF DOUBLY OCCUPIED LEVELS = 26


          Geometry optimization using EF

          DIAGONAL MATRIX USED AS START HESSIAN

 CYCLE:     1 TIME:   0.055 TIME LEFT:  2.00D  GRAD.:    63.610 HEAT:  9.648446
 CYCLE:     2 TIME:   0.094 TIME LEFT:  2.00D  GRAD.:    76.229 HEAT:  9.388754
 CYCLE:     3 TIME:   0.094 TIME LEFT:  2.00D  GRAD.:    33.485 HEAT:  8.545349
 CYCLE:     4 TIME:   0.094 TIME LEFT:  2.00D  GRAD.:    29.272 HEAT:  8.480773
 CYCLE:     5 TIME:   0.039 TIME LEFT:  2.00D  GRAD.:    11.961 HEAT:  8.361311
 CYCLE:     6 TIME:   0.078 TIME LEFT:  2.00D  GRAD.:    10.375 HEAT:  8.310598
 CYCLE:     7 TIME:   0.047 TIME LEFT:  2.00D  GRAD.:     7.515 HEAT:  8.282946
 CYCLE:     8 TIME:   0.047 TIME LEFT:  2.00D  GRAD.:    10.002 HEAT:  8.259200
 CYCLE:     9 TIME:   0.094 TIME LEFT:  2.00D  GRAD.:     6.934 HEAT:  8.242477
 CYCLE:    10 TIME:   0.039 TIME LEFT:  2.00D  GRAD.:     4.774 HEAT:  8.230075
 CYCLE:    11 TIME:   0.047 TIME LEFT:  2.00D  GRAD.:     2.947 HEAT:  8.222271
 CYCLE:    12 TIME:   0.039 TIME LEFT:  2.00D  GRAD.:     3.757 HEAT:  8.223730
 CYCLE:    13 TIME:   0.039 TIME LEFT:  2.00D  GRAD.:     1.298 HEAT:  8.219123
 CYCLE:    14 TIME:   0.047 TIME LEFT:  2.00D  GRAD.:     1.959 HEAT:  8.219165
 CYCLE:    15 TIME:   0.039 TIME LEFT:  2.00D  GRAD.:     0.973 HEAT:  8.218176
 CYCLE:    16 TIME:   0.039 TIME LEFT:  2.00D  GRAD.:     1.207 HEAT:  8.217931
 CYCLE:    17 TIME:   0.047 TIME LEFT:  2.00D  GRAD.:     0.675 HEAT:  8.217271
 CYCLE:    18 TIME:   0.039 TIME LEFT:  2.00D  GRAD.:     0.729 HEAT:  8.216885
 CYCLE:    19 TIME:   0.039 TIME LEFT:  2.00D  GRAD.:     0.801 HEAT:  8.216512
 CYCLE:    20 TIME:   0.047 TIME LEFT:  2.00D  GRAD.:     0.667 HEAT:  8.216149
 CYCLE:    21 TIME:   0.039 TIME LEFT:  2.00D  GRAD.:     0.726 HEAT:  8.215914
 CYCLE:    22 TIME:   0.039 TIME LEFT:  2.00D  GRAD.:     0.566 HEAT:  8.215612
 CYCLE:    23 TIME:   0.039 TIME LEFT:  2.00D  GRAD.:     1.048 HEAT:  8.215682
 CYCLE:    24 TIME:   0.047 TIME LEFT:  2.00D  GRAD.:     0.250 HEAT:  8.215386
 CYCLE:    25 TIME:   0.039 TIME LEFT:  2.00D  GRAD.:     0.282 HEAT:  8.215362
 CYCLE:    26 TIME:   0.039 TIME LEFT:  2.00D  GRAD.:     0.195 HEAT:  8.215299
 CYCLE:    27 TIME:   0.039 TIME LEFT:  2.00D  GRAD.:     0.128 HEAT:  8.215257
 CYCLE:    28 TIME:   0.039 TIME LEFT:  2.00D  GRAD.:     0.107 HEAT:  8.215233
 CYCLE:    29 TIME:   0.039 TIME LEFT:  2.00D  GRAD.:     0.094 HEAT:  8.215217
 CYCLE:    30 TIME:   0.039 TIME LEFT:  2.00D  GRAD.:     0.095 HEAT:  8.215195
 CYCLE:    31 TIME:   0.047 TIME LEFT:  2.00D  GRAD.:     0.094 HEAT:  8.215174
 CYCLE:    32 TIME:   0.047 TIME LEFT:  2.00D  GRAD.:     0.067 HEAT:  8.215158
 CYCLE:    33 TIME:   0.039 TIME LEFT:  2.00D  GRAD.:     0.056 HEAT:  8.215150
 CYCLE:    34 TIME:   0.039 TIME LEFT:  2.00D  GRAD.:     0.051 HEAT:  8.215144
 CYCLE:    35 TIME:   0.039 TIME LEFT:  2.00D  GRAD.:     0.038 HEAT:  8.215141

     GRADIENT =  0.03803 IS LESS THAN CUTOFF =  0.05000



 -------------------------------------------------------------------------------
 PRECISE LARGE CHARGE=0 SINGLET  PM7
 m-nitrotoluen



     GEOMETRY OPTIMISED USING EIGENVECTOR FOLLOWING (EF).     
     SCF FIELD WAS ACHIEVED                                   


                              PM7 CALCULATION
                                                       MOPAC v22.1.0 Windows
                                                       Fri Mar 15 21:23:46 2024




          FINAL HEAT OF FORMATION =          8.21514 KCAL/MOL =      34.37215 KJ/MOL


          COSMO AREA              =        165.79 SQUARE ANGSTROMS
          COSMO VOLUME            =        160.47 CUBIC ANGSTROMS

          GRADIENT NORM           =          0.03803          =       0.00922 PER ATOM
          IONIZATION POTENTIAL    =         10.280386 EV
          HOMO LUMO ENERGIES (EV) =        -10.280 -1.228
          NO. OF FILLED LEVELS    =         26
          MOLECULAR WEIGHT        =        137.1378         POINT GROUP:  C1  

          MOLECULAR DIMENSIONS (Angstroms)

            Atom       Atom       Distance
            O    17    H    15     6.82585
            O    16    H    11     5.16518
            H    13    H    14     1.54167


          SCF CALCULATIONS        =         41
 
          WALL-CLOCK TIME         =      1.781 SECONDS
          COMPUTATION TIME        =      5.687 SECONDS




   ATOM   CHEMICAL          X               Y               Z
  NUMBER   SYMBOL      (ANGSTROMS)     (ANGSTROMS)     (ANGSTROMS)
 
     1       C          1.14645811  *  -0.13539455  *   0.06475862  *
     2       C          0.89585973  *  -1.50847688  *   0.05732235  *
     3       C         -0.40325530  *  -2.01695291  *  -0.00568728  *
     4       C         -1.46849066  *  -1.12238661  *  -0.06290168  *
     5       C         -1.23460172  *   0.25129741  *  -0.05600007  *
     6       C          0.07017378  *   0.75149009  *   0.00856934  *
     7       C          0.31541363  *   2.21981778  *   0.00152282  *
     8       H          2.17396757  *   0.23714210  *   0.11351900  *
     9       N          2.01920556  *  -2.43403434  *   0.11729704  *
    10       H         -0.57681056  *  -3.09688927  *  -0.00968005  *
    11       H         -2.48999270  *  -1.49966917  *  -0.11300840  *
    12       H         -2.07628053  *   0.94230118  *  -0.10175055  *
    13       H          0.44442392  *   2.59201024  *  -1.02795137  *
    14       H          1.22304261  *   2.49774439  *   0.55783074  *
    15       H         -0.51346874  *   2.78831958  *   0.44610846  *
    16       O          3.14698899  *  -1.97045984  *   0.17400754  *
    17       O          1.78160830  *  -3.63123019  *   0.10805763  *

                             CARTESIAN COORDINATES

   1    C        1.146458114    -0.135394546     0.064758618
   2    C        0.895859728    -1.508476879     0.057322346
   3    C       -0.403255298    -2.016952908    -0.005687283
   4    C       -1.468490659    -1.122386606    -0.062901678
   5    C       -1.234601724     0.251297406    -0.056000068
   6    C        0.070173781     0.751490092     0.008569337
   7    C        0.315413625     2.219817783     0.001522821
   8    H        2.173967570     0.237142098     0.113519003
   9    N        2.019205559    -2.434034342     0.117297042
  10    H       -0.576810562    -3.096889267    -0.009680052
  11    H       -2.489992705    -1.499669172    -0.113008399
  12    H       -2.076280530     0.942301177    -0.101750555
  13    H        0.444423921     2.592010239    -1.027951371
  14    H        1.223042608     2.497744392     0.557830741
  15    H       -0.513468740     2.788319582     0.446108458
  16    O        3.146988986    -1.970459845     0.174007538
  17    O        1.781608299    -3.631230189     0.108057628


           Empirical Formula: C7 H7 N O2  =    17 atoms



      MOLECULAR POINT GROUP   :   C1  


                  EIGENVALUES  
 -37.13885 -31.46787 -30.53303 -28.15386 -27.24618 -24.85851 -24.27629 -21.59669
 -20.83377 -18.72977 -17.81832 -17.20105 -17.03208 -16.19890 -15.43791 -15.26564
 -14.78118 -13.84835 -13.53598 -13.14409 -12.70746 -11.25110 -11.19466 -11.01670
 -10.69938 -10.28039  -1.22760  -0.48940   0.51659   0.79677   1.82812   3.14258
   3.49556   3.91475   4.11194   4.19657   4.29257   4.48833   4.89639   5.04124
   5.10412   5.11065   5.28497   5.49238   5.53702   5.57882   6.24409


              NET ATOMIC CHARGES AND DIPOLE CONTRIBUTIONS

  ATOM NO.   TYPE          CHARGE      No. of ELECS.   s-Pop       p-Pop       
    1          C          -0.130895        4.1309     1.09107     3.03982
    2          C          -0.060954        4.0610     1.07774     2.98321
    3          C          -0.109918        4.1099     1.08932     3.02060
    4          C          -0.148933        4.1489     1.08341     3.06552
    5          C          -0.138443        4.1384     1.09059     3.04785
    6          C           0.033976        3.9660     1.06665     2.89937
    7          C          -0.455971        4.4560     1.04909     3.40689
    8          H           0.187921        0.8121     0.81208
    9          N           0.619139        4.3809     1.45299     2.92787
   10          H           0.186393        0.8136     0.81361
   11          H           0.162003        0.8380     0.83800
   12          H           0.157876        0.8421     0.84212
   13          H           0.168136        0.8319     0.83186
   14          H           0.165608        0.8344     0.83439
   15          H           0.159460        0.8405     0.84054
   16          O          -0.398539        6.3985     1.94164     4.45690
   17          O          -0.396860        6.3969     1.94167     4.45519
 DIPOLE           X         Y         Z       TOTAL
 POINT-CHG.    -4.121     4.149    -0.281     5.854
 HYBRID         0.352    -0.200     0.011     0.405
 SUM           -3.769     3.949    -0.270     5.465


          ATOMIC ORBITAL ELECTRON POPULATIONS

     Atom    s        px        py        pz   
    1  C   1.09107   1.08998   0.97472   0.97513
    2  C   1.07774   0.92214   0.94883   1.11224
    3  C   1.08932   0.96469   1.09472   0.96119
    4  C   1.08341   1.07295   0.99210   1.00047
    5  C   1.09059   1.04560   1.02683   0.97542
    6  C   1.06665   0.96849   0.96901   0.96187
    7  C   1.04909   1.19081   1.02947   1.18661
    8  H   0.81208
    9  N   1.45299   0.99633   0.98875   0.94279
   10  H   0.81361
   11  H   0.83800
   12  H   0.84212
   13  H   0.83186
   14  H   0.83439
   15  H   0.84054
   16  O   1.94164   1.13263   1.77820   1.54607
   17  O   1.94167   1.88237   1.02570   1.54712
 *******************************************************************************
 **                                                                           **
 **                              MOPAC v22.1.0                                **
 **                                                                           **
 *******************************************************************************
 **          Digital Object Identifier (DOI): 10.5281/zenodo.6511958          **
 **    Visit the DOI location for information on how to cite this program.    **
 *******************************************************************************

                              PM7 CALCULATION RESULTS

 *******************************************************************************
 *  CALCULATION DONE:                                Fri Mar 15 21:23:47 2024  *
 *  PM7        - The PM7 Hamiltonian to be used
 *  SINGLET    - SPIN STATE DEFINED AS A SINGLET
 *
 *
 *
 *                 CHARGE ON SYSTEM = 0
 *
 *
 *
 *  OLDGEO     - PREVIOUS GEOMETRY TO BE USED
 *  PRECISE    - TIGHTER CRITERIA TO BE USED
 *  T=         - A TIME OF 172800.0 SECONDS REQUESTED
 *  DUMP=N     - RESTART FILE WRITTEN EVERY 7200.0 SECONDS REQUESTED
 *  THERMO     - THERMODYNAMIC QUANTITIES TO BE CALCULATED
 *******************************************************************************
OLDGEO CHARGE=0 SINGLET PRECISE PM7 THERMO
 m-nitrotoluen

   ATOM   CHEMICAL          X               Y               Z
  NUMBER   SYMBOL      (ANGSTROMS)     (ANGSTROMS)     (ANGSTROMS)
 
     1       C          1.14645811  *  -0.13539455  *   0.06475862  *
     2       C          0.89585973  *  -1.50847688  *   0.05732235  *
     3       C         -0.40325530  *  -2.01695291  *  -0.00568728  *
     4       C         -1.46849066  *  -1.12238661  *  -0.06290168  *
     5       C         -1.23460172  *   0.25129741  *  -0.05600007  *
     6       C          0.07017378  *   0.75149009  *   0.00856934  *
     7       C          0.31541363  *   2.21981778  *   0.00152282  *
     8       H          2.17396757  *   0.23714210  *   0.11351900  *
     9       N          2.01920556  *  -2.43403434  *   0.11729704  *
    10       H         -0.57681056  *  -3.09688927  *  -0.00968005  *
    11       H         -2.48999270  *  -1.49966917  *  -0.11300840  *
    12       H         -2.07628053  *   0.94230118  *  -0.10175055  *
    13       H          0.44442392  *   2.59201024  *  -1.02795137  *
    14       H          1.22304261  *   2.49774439  *   0.55783074  *
    15       H         -0.51346874  *   2.78831958  *   0.44610846  *
    16       O          3.14698899  *  -1.97045984  *   0.17400754  *
    17       O          1.78160830  *  -3.63123019  *   0.10805763  *
 


          CARTESIAN COORDINATES 

    NO.       ATOM           X           Y           Z

     1         C          1.1465     -0.1354      0.0648
     2         C          0.8959     -1.5085      0.0573
     3         C         -0.4033     -2.0170     -0.0057
     4         C         -1.4685     -1.1224     -0.0629
     5         C         -1.2346      0.2513     -0.0560
     6         C          0.0702      0.7515      0.0086
     7         C          0.3154      2.2198      0.0015
     8         H          2.1740      0.2371      0.1135
     9         N          2.0192     -2.4340      0.1173
    10         H         -0.5768     -3.0969     -0.0097
    11         H         -2.4900     -1.4997     -0.1130
    12         H         -2.0763      0.9423     -0.1018
    13         H          0.4444      2.5920     -1.0280
    14         H          1.2230      2.4977      0.5578
    15         H         -0.5135      2.7883      0.4461
    16         O          3.1470     -1.9705      0.1740
    17         O          1.7816     -3.6312      0.1081

 General Reference for PM7:
 "Optimization of Parameters for Semiempirical Methods VI: More Modifications to the 
 NDDO Approximations and Re-optimization of Parameters", J. J. P. Stewart, J. Mol. Mod., 1:32, 19 (2013)
 https://link.springer.com/article/10.1007/s00894-012-1667-x

           Empirical Formula: C7 H7 N O2  =    17 atoms



      MOLECULAR POINT GROUP   :   C1  


 SINGLET STATE CALCULATION


      RHF CALCULATION, NO. OF DOUBLY OCCUPIED LEVELS = 26



          HEAT OF FORMATION =       8.215141 KCALS/MOLE


          CARTESIAN COORDINATE DERIVATIVES

   NUMBER  ATOM         X            Y            Z

     1       C      0.002797    -0.007442     0.003784
     2       C     -0.002917    -0.002143    -0.001119
     3       C      0.000197     0.014767    -0.000976
     4       C     -0.005161    -0.003271     0.005720
     5       C     -0.006486    -0.003585    -0.003031
     6       C     -0.002517    -0.006867     0.001812
     7       C     -0.001959    -0.002837    -0.001447
     8       H      0.005774     0.009466     0.005654
     9       N     -0.004795    -0.007847     0.000081
    10       H     -0.004905    -0.005045    -0.002718
    11       H      0.000235     0.003475     0.002766
    12       H      0.003193    -0.003291    -0.001106
    13       H      0.005827     0.012716     0.001687
    14       H     -0.003162     0.001517    -0.008280
    15       H      0.006551    -0.003851     0.001720
    16       O      0.005580     0.007639    -0.003244
    17       O      0.001748    -0.003403    -0.001305
 


          GRADIENT NORM =   0.03620


          TIME FOR SCF CALCULATION =    0.02

          TIME FOR DERIVATIVES     =    0.04

          MOLECULAR WEIGHT =  137.14



          ROTATIONAL CONSTANTS IN CM(-1)

          A =    0.08937847   B =    0.03288037   C =    0.02414638



           PRINCIPAL MOMENTS OF INERTIA IN UNITS OF 10**(-40)*GRAM-CM**2

          A =      313.1935   B =      851.3515   C =     1159.2940


          ORIENTATION OF MOLECULE IN FORCE CALCULATION

    NO.       ATOM         X         Y         Z

     1          C      -0.9352   -0.2750   -0.0015
     2          C       0.4606   -0.2750   -0.0015
     3          C       1.1943    0.9132   -0.0015
     4          C       0.5059    2.1233   -0.0008
     5          C      -0.8875    2.1398   -0.0011
     6          C      -1.6141    0.9445   -0.0024
     7          C      -3.1026    0.9676    0.0115
     8          H      -1.4864   -1.2200   -0.0004
     9          N       1.1691   -1.5478   -0.0020
    10          H       2.2879    0.8900   -0.0022
    11          H       1.0607    3.0616   -0.0004
    12          H      -1.4159    3.0931    0.0000
    13          H      -3.4864    0.9589    1.0447
    14          H      -3.5419    0.0981   -0.4999
    15          H      -3.5154    1.8620   -0.4760
    16          O       0.5102   -2.5754   -0.0041
    17          O       2.3895   -1.5289   -0.0002


    FIRST DERIVATIVES WILL BE USED IN THE CALCULATION OF SECOND DERIVATIVES

          ESTIMATED TIME TO COMPLETE CALCULATION =       11.16 SECONDS

    FOR POINT-GROUP C1   THERE ARE   1 UNIQUE SYMMETRY FUNCTIONS.

 STEP:   1 TIME =     0.21 SECS, INTEGRAL =      0.21 TIME LEFT: 172799.73
 STEP:   2 TIME =     0.27 SECS, INTEGRAL =      0.48 TIME LEFT: 172799.46
 STEP:   3 TIME =     0.22 SECS, INTEGRAL =      0.70 TIME LEFT: 172799.24
 STEP:   4 TIME =     0.22 SECS, INTEGRAL =      0.92 TIME LEFT: 172799.02
 STEP:   5 TIME =     0.20 SECS, INTEGRAL =      1.12 TIME LEFT: 172798.82
 STEP:   6 TIME =     0.22 SECS, INTEGRAL =      1.34 TIME LEFT: 172798.60
 STEP:   7 TIME =     0.21 SECS, INTEGRAL =      1.55 TIME LEFT: 172798.39
 STEP:   8 TIME =     0.20 SECS, INTEGRAL =      1.76 TIME LEFT: 172798.19
 STEP:   9 TIME =     0.21 SECS, INTEGRAL =      1.97 TIME LEFT: 172797.98
 STEP:  10 TIME =     0.21 SECS, INTEGRAL =      2.18 TIME LEFT: 172797.77
 STEP:  11 TIME =     0.26 SECS, INTEGRAL =      2.44 TIME LEFT: 172797.51
 STEP:  12 TIME =     0.23 SECS, INTEGRAL =      2.67 TIME LEFT: 172797.27
 STEP:  13 TIME =     0.21 SECS, INTEGRAL =      2.88 TIME LEFT: 172797.06
 STEP:  14 TIME =     0.21 SECS, INTEGRAL =      3.09 TIME LEFT: 172796.85
 STEP:  15 TIME =     0.21 SECS, INTEGRAL =      3.30 TIME LEFT: 172796.64
 STEP:  16 TIME =     0.21 SECS, INTEGRAL =      3.52 TIME LEFT: 172796.43
 STEP:  17 TIME =     0.22 SECS, INTEGRAL =      3.73 TIME LEFT: 172796.21
 STEP:  18 TIME =     0.22 SECS, INTEGRAL =      3.95 TIME LEFT: 172795.99
 STEP:  19 TIME =     0.20 SECS, INTEGRAL =      4.16 TIME LEFT: 172795.79
 STEP:  20 TIME =     0.20 SECS, INTEGRAL =      4.36 TIME LEFT: 172795.59
 STEP:  21 TIME =     0.20 SECS, INTEGRAL =      4.56 TIME LEFT: 172795.38
 STEP:  22 TIME =     0.21 SECS, INTEGRAL =      4.77 TIME LEFT: 172795.17
 STEP:  23 TIME =     0.22 SECS, INTEGRAL =      4.99 TIME LEFT: 172794.95
 STEP:  24 TIME =     0.21 SECS, INTEGRAL =      5.20 TIME LEFT: 172794.74
 STEP:  25 TIME =     0.22 SECS, INTEGRAL =      5.42 TIME LEFT: 172794.52
 STEP:  26 TIME =     0.21 SECS, INTEGRAL =      5.63 TIME LEFT: 172794.31
 STEP:  27 TIME =     0.22 SECS, INTEGRAL =      5.85 TIME LEFT: 172794.09
 STEP:  28 TIME =     0.22 SECS, INTEGRAL =      6.07 TIME LEFT: 172793.88
 STEP:  29 TIME =     0.20 SECS, INTEGRAL =      6.27 TIME LEFT: 172793.67
 STEP:  30 TIME =     0.21 SECS, INTEGRAL =      6.48 TIME LEFT: 172793.46
 STEP:  31 TIME =     0.21 SECS, INTEGRAL =      6.70 TIME LEFT: 172793.25
 STEP:  32 TIME =     0.21 SECS, INTEGRAL =      6.91 TIME LEFT: 172793.04
 STEP:  33 TIME =     0.20 SECS, INTEGRAL =      7.11 TIME LEFT: 172792.84
 STEP:  34 TIME =     0.22 SECS, INTEGRAL =      7.33 TIME LEFT: 172792.62
 STEP:  35 TIME =     0.22 SECS, INTEGRAL =      7.55 TIME LEFT: 172792.40
 STEP:  36 TIME =     0.24 SECS, INTEGRAL =      7.79 TIME LEFT: 172792.16
 STEP:  37 TIME =     0.20 SECS, INTEGRAL =      7.99 TIME LEFT: 172791.95
 STEP:  38 TIME =     0.21 SECS, INTEGRAL =      8.20 TIME LEFT: 172791.74
 STEP:  39 TIME =     0.20 SECS, INTEGRAL =      8.41 TIME LEFT: 172791.54
 STEP:  40 TIME =     0.29 SECS, INTEGRAL =      8.70 TIME LEFT: 172791.25
 STEP:  41 TIME =     0.31 SECS, INTEGRAL =      9.01 TIME LEFT: 172790.94
 STEP:  42 TIME =     0.22 SECS, INTEGRAL =      9.23 TIME LEFT: 172790.72
 STEP:  43 TIME =     0.21 SECS, INTEGRAL =      9.44 TIME LEFT: 172790.51
 STEP:  44 TIME =     0.22 SECS, INTEGRAL =      9.66 TIME LEFT: 172790.29
 STEP:  45 TIME =     0.22 SECS, INTEGRAL =      9.88 TIME LEFT: 172790.07
 STEP:  46 TIME =     0.20 SECS, INTEGRAL =     10.08 TIME LEFT: 172789.87
 STEP:  47 TIME =     0.20 SECS, INTEGRAL =     10.28 TIME LEFT: 172789.66
 STEP:  48 TIME =     0.26 SECS, INTEGRAL =     10.54 TIME LEFT: 172789.41
 STEP:  49 TIME =     0.21 SECS, INTEGRAL =     10.75 TIME LEFT: 172789.20
 STEP:  50 TIME =     0.21 SECS, INTEGRAL =     10.96 TIME LEFT: 172788.98
 STEP:  51 TIME =     0.22 SECS, INTEGRAL =     11.18 TIME LEFT: 172788.77

(To convert to Hartree/Bohr^2, multiply by (10^(-21) x N x a0^2)/(4.184 x 627.51) =  0.0642)


           FORCE MATRIX IN MILLIDYNES/ANGSTROM


                  C  1       C  2       C  3       C  4       C  5       C  6
 ------------------------------------------------------------------------------
     C    1  15.108774
     C    2   5.827442  16.390466
     C    3   2.178606   5.805482  15.171904
     C    4   1.622464   2.284405   6.100619  15.174058
     C    5   2.267497   1.600915   2.347168   6.047424  15.057544
     C    6   5.886777   2.276097   1.664877   2.350032   5.762989  16.204820
     C    7   0.808860   0.092949   0.025508   0.092222   0.795617   3.906294
     H    8   3.420605   0.753436   0.089075   0.032461   0.094252   0.716686
     N    9   1.079155   3.325717   1.071202   0.175691   0.063911   0.184287
     H   10   0.087143   0.748779   3.424363   0.716847   0.091862   0.024220
     H   11   0.009835   0.092487   0.748850   3.465344   0.748314   0.094301
     H   12   0.091909   0.032350   0.093002   0.746539   3.469976   0.737205
     H   13   0.019973   0.013896   0.004429   0.012960   0.019962   0.744568
     H   14   0.029576   0.007047   0.006244   0.011400   0.040645   0.722489
     H   15   0.040408   0.009839   0.003164   0.006452   0.028815   0.723156
     O   16   0.088771   1.384898   0.116641   0.059098   0.026337   0.037120
     O   17   0.117008   1.388155   0.088775   0.037406   0.031025   0.054740


                  C  7       H  8       N  9       H 10       H 11       H 12
 ------------------------------------------------------------------------------
     C    7  11.641818
     H    8   0.043710   4.308515
     N    9   0.040555   0.129584  20.509573
     H   10   0.015354   0.007833   0.128519   4.305482
     H   11   0.011968   0.011520   0.019055   0.034115   4.366897
     H   12   0.040973   0.010160   0.031962   0.008984   0.034453   4.367662
     H   13   3.360824   0.009932   0.011723   0.002309   0.002207   0.008806
     H   14   3.400437   0.022127   0.014583   0.002061   0.001976   0.003660
     H   15   3.409599   0.003813   0.008723   0.002063   0.002081   0.020990
     O   16   0.019140   0.067408  10.104292   0.031645   0.006340   0.005316
     O   17   0.018662   0.032009  10.104188   0.066535   0.008920   0.005638


                  H 13       H 14       H 15       O 16       O 17
 ------------------------------------------------------------------
     H   13   4.169937
     H   14   0.458273   4.198490
     H   15   0.459246   0.456738   4.209895
     O   16   0.004855   0.007575   0.002625  12.619710
     O   17   0.004119   0.005470   0.002604   2.213140  12.617496


          HEAT OF FORMATION =       8.215141 KCALS/MOLE

          ZERO POINT ENERGY      78.092 KCAL/MOL


           NORMAL COORDINATE ANALYSIS (Total motion = 1 Angstrom)


   Root No.       1         2         3         4         5         6         7         8

                 1 A       2 A       3 A       4 A       5 A       6 A       7 A       8 A   

                  19.8      37.1     150.6     189.7     195.0     348.2     384.2     406.7
  
           1   -0.0001    0.0000    0.0005    0.0007   -0.0416    0.0148    0.0004   -0.0062
           2   -0.0021    0.0004    0.0005    0.0003   -0.0129   -0.0216   -0.0001   -0.0623
           3   -0.0018    0.0239    0.1007   -0.0439    0.0002   -0.0006    0.0456    0.0015
           4    0.0004   -0.0001    0.0004    0.0007   -0.0413    0.0250    0.0006   -0.0073
           5   -0.0006    0.0001    0.0004    0.0007   -0.0338    0.0037   -0.0003    0.0171
           6   -0.0007   -0.0066    0.0730    0.0096    0.0017    0.0020   -0.0494   -0.0010
           7   -0.0008    0.0001    0.0004    0.0003   -0.0228   -0.0074   -0.0011    0.0429
           8   -0.0004    0.0001    0.0004    0.0009   -0.0432    0.0210    0.0009   -0.0198
           9    0.0030   -0.0455    0.0434    0.0716    0.0031    0.0012   -0.0329   -0.0008
          10   -0.0019    0.0003    0.0004   -0.0003    0.0072   -0.0383   -0.0018    0.0362
          11   -0.0006    0.0001    0.0003    0.0007   -0.0296    0.0069    0.0006   -0.0333
          12    0.0054   -0.0562   -0.0173    0.0026   -0.0007   -0.0028    0.0783    0.0019
          13   -0.0014    0.0002    0.0002   -0.0004    0.0091   -0.0334   -0.0016    0.0365
          14   -0.0021    0.0004    0.0004    0.0003   -0.0069   -0.0246    0.0005   -0.0859
          15    0.0045   -0.0234   -0.0505   -0.0682   -0.0035    0.0003   -0.0475   -0.0017
          16   -0.0008    0.0001    0.0003    0.0002   -0.0137   -0.0136   -0.0003    0.0038
          17   -0.0033    0.0006    0.0005   -0.0000    0.0065   -0.0382   -0.0002   -0.0686
          18    0.0012    0.0188    0.0167   -0.0375   -0.0010    0.0009   -0.0280   -0.0007
          19   -0.0006    0.0004   -0.0003    0.0013   -0.0133   -0.0136    0.0002    0.0080
          20    0.0061   -0.0013   -0.0017   -0.0021    0.0827    0.0726    0.0021    0.0110
          21    0.0021    0.0590   -0.0368    0.0604    0.0017   -0.0000    0.0062    0.0001
          22    0.0021   -0.0004    0.0002    0.0011   -0.0569    0.0349   -0.0000    0.0242
          23   -0.0034    0.0007    0.0007   -0.0000   -0.0017   -0.0332    0.0003   -0.0784
          24   -0.0048    0.0509    0.1581   -0.0744   -0.0001   -0.0042    0.1621    0.0042
          25    0.0012   -0.0003   -0.0002   -0.0003    0.0073    0.0318    0.0012   -0.0169
          26   -0.0002    0.0000    0.0001    0.0002   -0.0081   -0.0002   -0.0006    0.0451
          27   -0.0034    0.0033    0.0017    0.0012    0.0002    0.0009   -0.0250   -0.0005
          28   -0.0007    0.0001    0.0004    0.0003   -0.0216   -0.0074   -0.0011    0.0415
          29    0.0008   -0.0001    0.0003    0.0013   -0.0615    0.0507    0.0021   -0.0450
          30    0.0041   -0.0656    0.0494    0.1562    0.0063    0.0025   -0.0713   -0.0019
          31   -0.0024    0.0004    0.0003   -0.0007    0.0263   -0.0607   -0.0020    0.0081
          32   -0.0003    0.0001    0.0004    0.0009   -0.0410    0.0202    0.0007   -0.0183
          33    0.0081   -0.0890   -0.0511    0.0111   -0.0015   -0.0073    0.2252    0.0057
          34   -0.0037    0.0007    0.0006   -0.0005    0.0265   -0.0544   -0.0021    0.0289
          35   -0.0034    0.0007    0.0007    0.0003    0.0031   -0.0352    0.0003   -0.0867
          36    0.0065   -0.0300   -0.1290   -0.1246   -0.0067    0.0020   -0.1152   -0.0034
          37    0.0052    0.0278   -0.0411    0.0807   -0.0119   -0.0156    0.0316    0.0078
          38    0.3196   -0.0509   -0.0004   -0.0060    0.0880    0.0932    0.0019    0.0308
          39    0.0067    0.0688   -0.0523    0.0911    0.0023   -0.0008    0.0186    0.0004
          40   -0.0153   -0.0104    0.0228   -0.0361   -0.0612   -0.0884   -0.0158   -0.0459
          41   -0.1409    0.0215   -0.0043   -0.0018    0.1162    0.1230    0.0031    0.0423
          42    0.2662    0.0293   -0.0529    0.0931   -0.0125   -0.0167    0.0189   -0.0050
          43    0.0086   -0.0152    0.0157   -0.0375    0.0339    0.0652   -0.0133    0.0637
          44   -0.1341    0.0204   -0.0044   -0.0011    0.1141    0.1203    0.0034    0.0413
          45   -0.2648    0.1124   -0.0554    0.0963    0.0180    0.0162    0.0207    0.0059
          46    0.0020   -0.0002   -0.0010   -0.0018    0.0764   -0.0026    0.0007   -0.0590
          47   -0.0006    0.0003    0.0006    0.0011   -0.0495    0.0205   -0.0004    0.0751
          48   -0.0158   -0.1350   -0.0467   -0.0041   -0.0009   -0.0005    0.0126    0.0003
          49    0.0012   -0.0005   -0.0002   -0.0004    0.0087    0.0327    0.0012   -0.0199
          50    0.0006   -0.0003   -0.0008   -0.0014    0.0706   -0.0566   -0.0024    0.0742
          51    0.0070    0.1498   -0.0434   -0.0085   -0.0009   -0.0005    0.0137    0.0003


   Root No.       9        10        11        12        13        14        15        16

                 9 A      10 A      11 A      12 A      13 A      14 A      15 A      16 A   

                 482.5     506.0     557.2     607.0     662.1     723.9     791.4     858.6
  
           1   -0.0004    0.0192    0.0536   -0.0010   -0.0587    0.0003    0.0100    0.0002
           2    0.0049   -0.0471    0.0409   -0.0022   -0.0403   -0.0004   -0.0051   -0.0002
           3    0.0078    0.0024   -0.0018   -0.0347    0.0004   -0.0054   -0.0003   -0.0014
           4    0.0006    0.0075    0.0538   -0.0012   -0.0515    0.0002    0.0198   -0.0000
           5    0.0006    0.0015    0.0397   -0.0008    0.0520   -0.0007   -0.0379    0.0000
           6   -0.0821   -0.0083    0.0033    0.0260   -0.0004   -0.0944    0.0022    0.0354
           7    0.0051   -0.0376    0.0830   -0.0030   -0.0102   -0.0009   -0.0530    0.0001
           8   -0.0027    0.0397    0.0350    0.0003    0.0451    0.0001    0.0257   -0.0004
           9    0.0485    0.0057   -0.0027   -0.0299    0.0003   -0.0047   -0.0000   -0.0244
          10    0.0027   -0.0229    0.0019    0.0004    0.0699    0.0002    0.0558   -0.0006
          11   -0.0046    0.0546   -0.0074    0.0022    0.0862    0.0008    0.0965   -0.0009
          12   -0.0210   -0.0033    0.0022    0.0305   -0.0004   -0.0126   -0.0005   -0.0350
          13    0.0017   -0.0145   -0.0065    0.0007    0.0623    0.0003    0.0477   -0.0004
          14   -0.0016    0.0087   -0.0365    0.0009   -0.0485    0.0002   -0.0190    0.0007
          15   -0.0154   -0.0001   -0.0019   -0.0343    0.0004   -0.0050   -0.0007   -0.0314
          16   -0.0060    0.0603   -0.0402    0.0022   -0.0149    0.0007   -0.0184    0.0009
          17    0.0028   -0.0347   -0.0136   -0.0004   -0.0186   -0.0001   -0.0039    0.0000
          18    0.0900    0.0078   -0.0003    0.0684   -0.0020    0.0182   -0.0031    0.0139
          19   -0.0095    0.0799   -0.0540    0.0017   -0.0282   -0.0002   -0.0705    0.0007
          20   -0.0007    0.0102    0.0109   -0.0002   -0.0115   -0.0001   -0.0012    0.0002
          21   -0.0070   -0.0020    0.0013    0.0040    0.0005    0.0040    0.0022    0.0083
          22    0.0009    0.0197    0.0983   -0.0011   -0.0314   -0.0004    0.0024    0.0005
          23    0.0038   -0.0456    0.0098   -0.0022   -0.0518    0.0002   -0.0006   -0.0005
          24   -0.0015    0.0037   -0.0065   -0.1775    0.0041    0.1605    0.0039   -0.0408
          25    0.0025   -0.0355   -0.0421    0.0003   -0.0237    0.0002    0.0439   -0.0005
          26    0.0013   -0.0196   -0.0215    0.0001    0.0483   -0.0008   -0.0822    0.0009
          27   -0.0637   -0.0073    0.0034    0.0303    0.0000    0.1333   -0.0022   -0.0217
          28    0.0049   -0.0362    0.0786   -0.0029   -0.0097   -0.0007   -0.0482    0.0002
          29   -0.0039    0.0570    0.0652   -0.0006   -0.0348    0.0001    0.0090   -0.0002
          30    0.1724    0.0198   -0.0097   -0.1222    0.0022    0.2175   -0.0003    0.1546
          31    0.0023   -0.0306   -0.0531    0.0016    0.0405    0.0006    0.0613    0.0000
          32   -0.0042    0.0567    0.0272    0.0012    0.0956    0.0005    0.0842   -0.0013
          33   -0.0692   -0.0110    0.0070    0.0680    0.0004    0.0968    0.0046    0.2942
          34    0.0076   -0.0731    0.0041   -0.0002    0.0304   -0.0004    0.0155   -0.0011
          35    0.0020   -0.0244   -0.0281    0.0006   -0.0589   -0.0002   -0.0316    0.0000
          36   -0.1000   -0.0049   -0.0050   -0.1826    0.0048    0.0646    0.0095    0.2057
          37   -0.1155    0.0736   -0.0572   -0.0748   -0.0283   -0.0479   -0.0746   -0.0548
          38    0.0004    0.0246    0.0206    0.0011   -0.0141    0.0014   -0.0032   -0.0007
          39   -0.0500   -0.0034   -0.0007   -0.0271   -0.0003   -0.0173   -0.0036   -0.0170
          40    0.0442    0.0462   -0.0736    0.0375   -0.0265    0.0223   -0.0621    0.0270
          41   -0.0028    0.0329    0.0243   -0.0007   -0.0149    0.0009   -0.0025    0.0004
          42   -0.0530   -0.0105   -0.0012   -0.0287    0.0035   -0.0203    0.0021   -0.0191
          43    0.0360    0.1181   -0.0284    0.0360   -0.0305    0.0216   -0.0666    0.0252
          44   -0.0040    0.0303    0.0254   -0.0011   -0.0154   -0.0013   -0.0041   -0.0020
          45   -0.0544   -0.0021    0.0047   -0.0292   -0.0008   -0.0201    0.0007   -0.0208
          46    0.0007   -0.0045    0.0165   -0.0003    0.0705   -0.0007   -0.0705    0.0006
          47    0.0025   -0.0445   -0.0646    0.0005   -0.0118    0.0000   -0.0217    0.0003
          48    0.0252    0.0027   -0.0012   -0.0087    0.0001   -0.0360    0.0004    0.0051
          49    0.0027   -0.0409   -0.0465    0.0003   -0.0229    0.0005    0.0495   -0.0006
          50   -0.0021    0.0287    0.0226   -0.0002   -0.0728    0.0006    0.0491   -0.0004
          51    0.0247    0.0026   -0.0012   -0.0088   -0.0001   -0.0361    0.0007    0.0048


   Root No.      17        18        19        20        21        22        23        24

                17 A      18 A      19 A      20 A      21 A      22 A      23 A      24 A   

                 949.6     982.1    1015.5    1033.3    1045.0    1066.9    1082.1    1210.7
  
           1    0.0012   -0.0002   -0.0452    0.0013   -0.0419   -0.0175    0.0054   -0.0320
           2   -0.0006    0.0001   -0.0263    0.0033   -0.0393    0.0671   -0.0126    0.0363
           3   -0.0504    0.0525   -0.0033   -0.0090    0.0004   -0.0062   -0.0228   -0.0001
           4    0.0006   -0.0001   -0.0273    0.0006   -0.0141   -0.0228    0.0064    0.0060
           5   -0.0008    0.0001    0.0308   -0.0009    0.0306    0.0119   -0.0036    0.0446
           6    0.0117   -0.0433    0.0002   -0.0102    0.0001    0.0025    0.0072    0.0000
           7   -0.0008    0.0001    0.0513   -0.0023    0.0557   -0.0068   -0.0002   -0.0008
           8   -0.0007   -0.0001    0.0273   -0.0010    0.0056    0.0063   -0.0027   -0.0378
           9    0.0280    0.0500    0.0026    0.0461   -0.0002   -0.0027   -0.0056   -0.0000
          10   -0.0004    0.0000   -0.0085    0.0004    0.0007   -0.0056    0.0022   -0.0213
          11   -0.0006   -0.0000   -0.0081    0.0008    0.0027    0.0015    0.0010    0.0182
          12    0.0069    0.0008   -0.0024   -0.0615    0.0003    0.0056    0.0137   -0.0000
          13   -0.0002    0.0001   -0.0145    0.0010   -0.0123    0.0075   -0.0007    0.0196
          14    0.0013    0.0000   -0.0153   -0.0010    0.0647   -0.0562    0.0122    0.0150
          15   -0.0267   -0.0480    0.0003    0.0365   -0.0008   -0.0095   -0.0278    0.0004
          16    0.0016   -0.0001   -0.0057   -0.0013    0.0117   -0.0298    0.0048   -0.0202
          17   -0.0004    0.0002    0.0174   -0.0007   -0.0054    0.0075   -0.0027   -0.0368
          18    0.0077   -0.0005    0.0036    0.0079    0.0000    0.0148    0.0546   -0.0005
          19   -0.0000    0.0001    0.0246   -0.0002   -0.0175    0.0526   -0.0145    0.0181
          20   -0.0004    0.0006    0.0355   -0.0029   -0.0447   -0.0326    0.0060    0.0106
          21    0.0214   -0.0015   -0.0024   -0.0161   -0.0000   -0.0122   -0.0518    0.0004
          22    0.0003    0.0013   -0.0551    0.0001   -0.0425   -0.0702    0.0172    0.1605
          23    0.0000   -0.0010   -0.0142    0.0037   -0.0338    0.0947   -0.0188   -0.0778
          24    0.2507   -0.2534    0.0130    0.0513   -0.0001    0.0236    0.0880    0.0015
          25   -0.0008    0.0001    0.0168   -0.0004    0.0094    0.0079   -0.0020    0.0024
          26    0.0013   -0.0001   -0.0284    0.0006   -0.0178   -0.0133    0.0034   -0.0081
          27   -0.0050    0.0161   -0.0000    0.0030   -0.0000   -0.0005   -0.0011   -0.0000
          28   -0.0008   -0.0001    0.0447   -0.0022    0.0515   -0.0091    0.0004    0.0005
          29   -0.0002   -0.0002    0.0238   -0.0013   -0.0022   -0.0094    0.0005    0.0002
          30   -0.1672   -0.2410   -0.0118   -0.1859    0.0006    0.0084    0.0141    0.0001
          31    0.0018    0.0001   -0.1033    0.0026    0.0269   -0.0895    0.0264    0.2047
          32   -0.0018   -0.0000    0.0501   -0.0009   -0.0088    0.0488   -0.0129   -0.1174
          33   -0.0366   -0.0117    0.0115    0.2536   -0.0011   -0.0179   -0.0384   -0.0000
          34   -0.0005   -0.0016   -0.0144    0.0018    0.0040    0.0141   -0.0059   -0.1680
          35    0.0008   -0.0012   -0.0126   -0.0004    0.0671   -0.0466    0.0076   -0.0900
          36    0.1232    0.2561   -0.0000   -0.1421    0.0021    0.0348    0.1053   -0.0024
          37   -0.1191    0.0077    0.0355    0.0790   -0.0165    0.1027    0.2288    0.0082
          38    0.0035   -0.0043   -0.0568    0.0043    0.0618    0.0410   -0.0113   -0.0478
          39   -0.0343    0.0021    0.0044    0.0217   -0.0014    0.0194    0.0639   -0.0007
          40    0.0542   -0.0027    0.1812   -0.0488   -0.2039   -0.1038   -0.1013    0.0386
          41    0.0033   -0.0013   -0.0654    0.0029    0.0726    0.0430   -0.0150   -0.0208
          42   -0.0418    0.0044    0.0035    0.0256   -0.0015    0.0115    0.0825    0.0165
          43    0.0545   -0.0043   -0.1501   -0.0224    0.1752    0.1569   -0.1407   -0.0050
          44   -0.0033   -0.0008   -0.0598    0.0077    0.0630    0.0478    0.0028   -0.0138
          45   -0.0411    0.0007   -0.0023    0.0276    0.0036    0.0153    0.0824   -0.0168
          46    0.0009   -0.0001   -0.0191    0.0005   -0.0119   -0.0075    0.0020   -0.0052
          47    0.0007   -0.0000   -0.0182    0.0005   -0.0127   -0.0073    0.0021   -0.0090
          48    0.0009   -0.0031   -0.0001   -0.0006   -0.0000    0.0001    0.0001   -0.0000
          49   -0.0011    0.0001    0.0273   -0.0005    0.0174    0.0172   -0.0044    0.0110
          50   -0.0004    0.0000    0.0056   -0.0001    0.0037    0.0009   -0.0002    0.0015
          51    0.0012   -0.0031    0.0001   -0.0005    0.0000    0.0001    0.0002    0.0000


   Root No.      25        26        27        28        29        30        31        32

                25 A      26 A      27 A      28 A      29 A      30 A      31 A      32 A   

                1220.6    1242.2    1269.1    1279.2    1311.0    1376.3    1378.0    1394.4
  
           1   -0.0217    0.0252   -0.0014   -0.0045    0.0368    0.0182    0.0087   -0.0103
           2   -0.0096   -0.0065    0.0006    0.0013   -0.0180    0.0106   -0.0059   -0.0009
           3   -0.0001   -0.0002    0.0004    0.0003    0.0001    0.0001   -0.0001    0.0000
           4    0.0120   -0.0255   -0.0009    0.0040   -0.0235   -0.0244   -0.0387    0.0065
           5    0.0156    0.0306    0.0051   -0.0080    0.0166    0.0621   -0.0239   -0.0300
           6    0.0000    0.0001   -0.0001   -0.0001    0.0000   -0.0000    0.0001   -0.0000
           7   -0.0262   -0.0224   -0.0007    0.0065   -0.0067   -0.0341   -0.0013    0.0179
           8    0.0107    0.0169    0.0002   -0.0058    0.0533    0.0075    0.0105   -0.0021
           9    0.0000    0.0000    0.0000    0.0001    0.0000    0.0000    0.0000   -0.0000
          10   -0.0237    0.0113   -0.0004   -0.0012    0.0213   -0.0240    0.0450    0.0122
          11   -0.0246   -0.0119   -0.0005    0.0054   -0.0201   -0.0448   -0.0245    0.0215
          12    0.0000    0.0000    0.0001   -0.0001   -0.0001   -0.0001   -0.0001   -0.0000
          13    0.0362   -0.0222   -0.0002    0.0027   -0.0440    0.0393   -0.0132   -0.0241
          14   -0.0082    0.0003   -0.0027    0.0023   -0.0285   -0.0117   -0.0035    0.0002
          15   -0.0002   -0.0002   -0.0004    0.0003    0.0001    0.0001    0.0001    0.0000
          16   -0.0111   -0.0220   -0.0014    0.0013   -0.0056    0.0802   -0.0010   -0.0284
          17    0.0009    0.0080   -0.0001   -0.0017    0.0173    0.0077    0.0498   -0.0017
          18   -0.0000   -0.0003    0.0004   -0.0037   -0.0002   -0.0010    0.0001   -0.0010
          19    0.0057    0.0141   -0.0005    0.0080    0.0077   -0.0737    0.0029   -0.0299
          20   -0.0024   -0.0018   -0.0341   -0.0035    0.0037   -0.0012   -0.0080    0.0016
          21   -0.0025   -0.0046    0.0034   -0.0304   -0.0018   -0.0021    0.0000   -0.0010
          22    0.0509    0.2233   -0.0001   -0.0330   -0.1733   -0.0136    0.1997    0.0132
          23   -0.0488   -0.1254   -0.0009    0.0184    0.1065    0.0333   -0.1218   -0.0178
          24    0.0010    0.0017   -0.0037    0.0003   -0.0008   -0.0009    0.0012   -0.0006
          25    0.0021    0.0048    0.0003   -0.0010    0.0026    0.0013    0.0046    0.0010
          26   -0.0012   -0.0057   -0.0007    0.0010   -0.0014   -0.0022    0.0025   -0.0012
          27    0.0000   -0.0000   -0.0000    0.0000    0.0000    0.0000   -0.0000    0.0000
          28   -0.0214   -0.0243   -0.0003    0.0063   -0.0069   -0.0346   -0.0005    0.0181
          29    0.3374   -0.2229    0.0256    0.0163    0.0136   -0.0335    0.1991    0.0242
          30    0.0001   -0.0001   -0.0000    0.0003    0.0000   -0.0000    0.0000    0.0001
          31    0.0541   -0.0037    0.0524   -0.0165    0.3343   -0.0743   -0.0415    0.0495
          32   -0.0636   -0.0033   -0.0317    0.0139   -0.2044   -0.0101    0.0260   -0.0031
          33   -0.0003   -0.0001    0.0002   -0.0001    0.0000   -0.0000    0.0002    0.0000
          34    0.2518    0.1663   -0.0247   -0.0417   -0.0316   -0.0698   -0.1923    0.0265
          35    0.1130    0.1019   -0.0170   -0.0221   -0.0241   -0.0721   -0.1030    0.0290
          36    0.0021    0.0019    0.0029    0.0008   -0.0003   -0.0013   -0.0010   -0.0005
          37   -0.0048   -0.0110    0.0299   -0.1824   -0.0179    0.0767   -0.0065    0.1782
          38   -0.0089    0.0219    0.3632    0.0448   -0.0324   -0.0018    0.0035   -0.0068
          39   -0.0037   -0.0085    0.0162   -0.0861   -0.0095    0.0411   -0.0031    0.0776
          40    0.0040    0.0213    0.1212    0.0550   -0.0197    0.0930   -0.0501    0.2141
          41   -0.0167   -0.0218    0.0527   -0.1658   -0.0056   -0.0688    0.0217   -0.1064
          42    0.0209    0.0236   -0.2226    0.2194    0.0375   -0.0013    0.0073   -0.0267
          43    0.0160    0.0212   -0.1259    0.0295    0.0158    0.1135    0.0355    0.2145
          44    0.0109    0.0317    0.0117    0.1638    0.0082    0.0711    0.0120    0.0991
          45    0.0125    0.0429    0.1620    0.2680   -0.0039   -0.0021   -0.0056   -0.0267
          46   -0.0030   -0.0066   -0.0007    0.0015   -0.0046   -0.0081   -0.0014    0.0047
          47   -0.0061   -0.0086   -0.0012    0.0023   -0.0076   -0.0152    0.0013    0.0085
          48   -0.0000   -0.0000    0.0000   -0.0000   -0.0000   -0.0000    0.0000    0.0000
          49    0.0008    0.0086    0.0013   -0.0018    0.0065    0.0152   -0.0009   -0.0083
          50    0.0001    0.0004    0.0000   -0.0000   -0.0007   -0.0004   -0.0017   -0.0001
          51    0.0000    0.0000    0.0000   -0.0000    0.0000    0.0000    0.0000   -0.0000


   Root No.      33        34        35        36        37        38        39        40

                33 A      34 A      35 A      36 A      37 A      38 A      39 A      40 A   

                1483.3    1533.4    1575.3    1693.2    1710.8    1764.0    2663.9    2670.5
  
           1   -0.0068   -0.0558   -0.0220    0.0844   -0.1125    0.0082   -0.0000    0.0004
           2    0.0078   -0.0205    0.0481   -0.1001    0.0060    0.0209    0.0007    0.0021
           3   -0.0000    0.0000   -0.0000    0.0001    0.0000    0.0000   -0.0001   -0.0000
           4    0.0374    0.0664   -0.0463   -0.0055    0.1566   -0.0414    0.0000    0.0000
           5   -0.0789   -0.0445   -0.0464    0.0576    0.0828   -0.0234    0.0000   -0.0000
           6   -0.0000    0.0000    0.0000    0.0000    0.0000   -0.0000   -0.0000    0.0000
           7    0.0038    0.0032    0.0461    0.0266   -0.0632    0.0230    0.0000   -0.0000
           8    0.0021    0.0721   -0.0015   -0.1447   -0.0674   -0.0042    0.0000    0.0001
           9   -0.0000    0.0000   -0.0000   -0.0001    0.0000   -0.0000    0.0000   -0.0000
          10    0.0180   -0.0564   -0.0374   -0.0933    0.1050   -0.0239    0.0001    0.0000
          11    0.0043   -0.0203    0.0473    0.1016   -0.0064    0.0112    0.0000   -0.0000
          12    0.0000   -0.0000    0.0000    0.0000    0.0000    0.0000   -0.0000   -0.0000
          13   -0.0139    0.0503   -0.0376    0.0153   -0.1377    0.0186   -0.0001    0.0000
          14    0.0103   -0.0223   -0.0515   -0.0639   -0.0659    0.0092    0.0000    0.0016
          15   -0.0000   -0.0000   -0.0000   -0.0001   -0.0001    0.0000   -0.0001    0.0000
          16   -0.0089   -0.0035    0.0917   -0.0336    0.0719   -0.0017    0.0009   -0.0004
          17   -0.0174    0.0672   -0.0002    0.1544    0.0567   -0.0242   -0.0006   -0.0033
          18    0.0000    0.0001    0.0000   -0.0000   -0.0000    0.0000   -0.0028    0.0005
          19   -0.0007    0.0013   -0.0212    0.0039   -0.0067   -0.0003   -0.0010   -0.0009
          20    0.0028   -0.0110    0.0006   -0.0118   -0.0043    0.0015   -0.0085   -0.0479
          21   -0.0002   -0.0001   -0.0003    0.0004   -0.0004    0.0001   -0.0484    0.0083
          22    0.0069    0.0671    0.1296   -0.0335   -0.0020   -0.0299   -0.0035   -0.0124
          23   -0.0154   -0.0826   -0.0501   -0.0036   -0.0254    0.0226   -0.0059   -0.0193
          24   -0.0000    0.0006    0.0003    0.0001    0.0002   -0.0001    0.0004    0.0001
          25   -0.1397   -0.0002   -0.0038   -0.0057    0.0204    0.3255    0.0000    0.0001
          26    0.2506    0.0042   -0.0023    0.0151    0.0091    0.1812   -0.0000    0.0001
          27    0.0001    0.0000   -0.0000    0.0000    0.0001    0.0006    0.0000   -0.0000
          28    0.0152    0.0014    0.0344    0.0152   -0.0268    0.0043   -0.0007    0.0004
          29    0.0080   -0.1925    0.0125    0.0278    0.0022   -0.0363   -0.0000   -0.0000
          30    0.0000   -0.0000   -0.0001    0.0001   -0.0001    0.0000    0.0001   -0.0000
          31   -0.0104    0.0626    0.1076    0.0398   -0.0162    0.0077   -0.0006   -0.0002
          32    0.0235   -0.0774   -0.0456   -0.0003    0.0305   -0.0051   -0.0010   -0.0000
          33    0.0000   -0.0000   -0.0001   -0.0000    0.0001   -0.0000    0.0001   -0.0000
          34    0.0085   -0.0633    0.1301    0.0112    0.0322    0.0099    0.0006    0.0081
          35    0.0236   -0.0710    0.0484   -0.0264    0.0245    0.0045   -0.0008   -0.0130
          36    0.0002   -0.0005    0.0003   -0.0003    0.0000    0.0000    0.0002   -0.0002
          37    0.0207    0.0029   -0.0413    0.0087   -0.0189   -0.0010   -0.1909    0.0369
          38   -0.0010    0.0068    0.0005    0.0055    0.0024    0.0013   -0.0077   -0.0235
          39    0.0098    0.0012   -0.0211    0.0082   -0.0173    0.0006    0.4465   -0.0880
          40    0.0328   -0.0311   -0.0467   -0.0360   -0.0336    0.0034    0.1336    0.1616
          41   -0.0157    0.0113    0.0196    0.0189    0.0189   -0.0035    0.2428    0.2754
          42   -0.0054    0.0021    0.0130    0.0035    0.0151   -0.0038    0.1212    0.1807
          43    0.0136    0.0389   -0.0470    0.0561   -0.0005   -0.0077    0.0614   -0.1841
          44    0.0076    0.0132   -0.0177    0.0277   -0.0017   -0.0040   -0.1286    0.3469
          45   -0.0016   -0.0028    0.0116   -0.0158    0.0078    0.0019    0.0433   -0.1979
          46   -0.1016    0.0022    0.0029   -0.0060   -0.0055   -0.0958   -0.0000   -0.0000
          47   -0.1675    0.0036    0.0081   -0.0113   -0.0159   -0.1466   -0.0000   -0.0000
          48   -0.0003    0.0000    0.0000   -0.0000   -0.0000   -0.0003   -0.0000   -0.0000
          49    0.1968   -0.0111    0.0038    0.0086   -0.0183   -0.1752   -0.0000   -0.0000
          50   -0.0021    0.0019   -0.0014    0.0001    0.0036   -0.0041    0.0000   -0.0000
          51    0.0003   -0.0000    0.0000    0.0000   -0.0000   -0.0003   -0.0000    0.0000


   Root No.      41        42        43        44        45

                41 A      42 A      43 A      44 A      45 A   

                2732.3    2734.2    2749.8    2761.6    2778.1
  
           1   -0.0130   -0.0163   -0.0015    0.0018    0.0005
           2   -0.0243   -0.0262   -0.0016    0.0030    0.0026
           3    0.0000    0.0000   -0.0000   -0.0000    0.0000
           4   -0.0053    0.0005   -0.0000   -0.0004    0.0000
           5   -0.0029   -0.0016   -0.0004    0.0011    0.0003
           6    0.0000    0.0000   -0.0000    0.0000   -0.0000
           7   -0.0313    0.0255    0.0078   -0.0083   -0.0014
           8    0.0022   -0.0006    0.0027   -0.0019   -0.0002
           9    0.0000   -0.0000   -0.0000    0.0000   -0.0000
          10    0.0008   -0.0030    0.0151   -0.0134   -0.0012
          11    0.0057   -0.0095    0.0188   -0.0255   -0.0027
          12    0.0000   -0.0000    0.0000   -0.0000   -0.0000
          13    0.0018   -0.0017    0.0174    0.0094    0.0011
          14   -0.0002    0.0008   -0.0270   -0.0215   -0.0041
          15    0.0000    0.0000   -0.0000   -0.0000    0.0000
          16   -0.0004    0.0000   -0.0002    0.0000    0.0065
          17   -0.0023   -0.0024   -0.0036   -0.0011   -0.0003
          18   -0.0000   -0.0000    0.0000    0.0000   -0.0000
          19    0.0006    0.0011   -0.0008   -0.0030    0.0209
          20   -0.0014   -0.0015   -0.0011   -0.0005   -0.0009
          21   -0.0001   -0.0000    0.0001   -0.0002    0.0010
          22    0.1926    0.2059    0.0167   -0.0195   -0.0145
          23    0.3209    0.3449    0.0291   -0.0321   -0.0255
          24   -0.0003   -0.0003   -0.0000    0.0000    0.0000
          25    0.0009   -0.0004   -0.0001    0.0004    0.0001
          26    0.0004    0.0010   -0.0001   -0.0003   -0.0002
          27    0.0000    0.0000   -0.0000    0.0000    0.0000
          28    0.4235   -0.3307   -0.1040    0.0946    0.0162
          29   -0.0031    0.0033    0.0018   -0.0010   -0.0002
          30   -0.0003    0.0002    0.0001   -0.0001    0.0000
          31   -0.0405    0.0699   -0.1642    0.1902    0.0187
          32   -0.0680    0.1179   -0.2798    0.3221    0.0318
          33   -0.0000    0.0001   -0.0002    0.0002    0.0000
          34   -0.0059    0.0035   -0.2102   -0.1462   -0.0243
          35    0.0127   -0.0064    0.3814    0.2636    0.0452
          36    0.0000   -0.0000    0.0004    0.0003    0.0000
          37   -0.0031   -0.0054    0.0039    0.0131   -0.0908
          38   -0.0003   -0.0004   -0.0000    0.0003   -0.0023
          39    0.0086    0.0153   -0.0103   -0.0365    0.2448
          40    0.0023   -0.0003    0.0077    0.0179   -0.1110
          41    0.0023   -0.0035    0.0137    0.0358   -0.2198
          42    0.0013   -0.0023    0.0084    0.0212   -0.1291
          43   -0.0074   -0.0106   -0.0007    0.0133   -0.1084
          44    0.0144    0.0219   -0.0010   -0.0309    0.2340
          45   -0.0082   -0.0124    0.0007    0.0170   -0.1277
          46   -0.0004   -0.0001    0.0000   -0.0000    0.0000
          47   -0.0003   -0.0002    0.0000    0.0001    0.0001
          48   -0.0000    0.0000    0.0000   -0.0000    0.0000
          49   -0.0005    0.0001    0.0001   -0.0002   -0.0000
          50   -0.0002   -0.0000    0.0000    0.0000    0.0000
          51   -0.0000   -0.0000    0.0000   -0.0000   -0.0000


           MASS-WEIGHTED COORDINATE ANALYSIS (NORMAL COORDINATES)


   Root No.       1         2         3         4         5         6         7         8

                 1 A       2 A       3 A       4 A       5 A       6 A       7 A       8 A   

                  19.8      37.1     150.6     189.7     195.0     348.2     384.2     406.7
  
           1   -0.0009    0.0000    0.0028    0.0047   -0.2143    0.0935    0.0023   -0.0283
           2   -0.0137    0.0016    0.0028    0.0016   -0.0663   -0.1368   -0.0003   -0.2849
           3   -0.0113    0.0920    0.5619   -0.2848    0.0013   -0.0036    0.2932    0.0070
           4    0.0028   -0.0005    0.0021    0.0044   -0.2128    0.1580    0.0036   -0.0333
           5   -0.0042    0.0006    0.0020    0.0047   -0.1742    0.0235   -0.0016    0.0781
           6   -0.0044   -0.0256    0.4075    0.0622    0.0090    0.0127   -0.3171   -0.0046
           7   -0.0049    0.0004    0.0024    0.0019   -0.1174   -0.0470   -0.0072    0.1965
           8   -0.0026    0.0004    0.0023    0.0061   -0.2226    0.1327    0.0056   -0.0906
           9    0.0196   -0.1748    0.2420    0.4638    0.0162    0.0076   -0.2113   -0.0038
          10   -0.0124    0.0013    0.0020   -0.0020    0.0369   -0.2423   -0.0113    0.1658
          11   -0.0036    0.0005    0.0017    0.0045   -0.1524    0.0435    0.0039   -0.1525
          12    0.0347   -0.2161   -0.0965    0.0169   -0.0038   -0.0177    0.5027    0.0085
          13   -0.0089    0.0008    0.0012   -0.0023    0.0470   -0.2111   -0.0104    0.1668
          14   -0.0134    0.0016    0.0022    0.0022   -0.0355   -0.1556    0.0031   -0.3931
          15    0.0288   -0.0899   -0.2819   -0.4422   -0.0182    0.0022   -0.3051   -0.0076
          16   -0.0049    0.0003    0.0016    0.0015   -0.0709   -0.0858   -0.0017    0.0175
          17   -0.0213    0.0025    0.0026   -0.0002    0.0334   -0.2413   -0.0014   -0.3139
          18    0.0078    0.0722    0.0932   -0.2431   -0.0051    0.0055   -0.1797   -0.0032
          19   -0.0039    0.0017   -0.0016    0.0086   -0.0688   -0.0859    0.0012    0.0366
          20    0.0395   -0.0050   -0.0095   -0.0138    0.4267    0.4591    0.0135    0.0504
          21    0.0132    0.2269   -0.2052    0.3916    0.0089   -0.0001    0.0397    0.0006
          22    0.0039   -0.0005    0.0003    0.0020   -0.0850    0.0639   -0.0000    0.0320
          23   -0.0064    0.0008    0.0012   -0.0000   -0.0026   -0.0607    0.0006   -0.1039
          24   -0.0089    0.0567    0.2556   -0.1397   -0.0002   -0.0076    0.3016    0.0056
          25    0.0086   -0.0012   -0.0014   -0.0023    0.0408    0.2171    0.0080   -0.0837
          26   -0.0013    0.0002    0.0004    0.0014   -0.0449   -0.0012   -0.0040    0.2229
          27   -0.0233    0.0138    0.0105    0.0083    0.0014    0.0062   -0.1732   -0.0027
          28   -0.0013    0.0001    0.0007    0.0006   -0.0323   -0.0136   -0.0021    0.0550
          29    0.0015   -0.0002    0.0005    0.0024   -0.0918    0.0928    0.0039   -0.0597
          30    0.0077   -0.0730    0.0799    0.2934    0.0093    0.0047   -0.1327   -0.0025
          31   -0.0046    0.0005    0.0004   -0.0013    0.0393   -0.1112   -0.0038    0.0107
          32   -0.0005    0.0001    0.0006    0.0017   -0.0613    0.0371    0.0013   -0.0243
          33    0.0150   -0.0991   -0.0827    0.0208   -0.0022   -0.0134    0.4190    0.0076
          34   -0.0069    0.0008    0.0009   -0.0010    0.0396   -0.0997   -0.0039    0.0383
          35   -0.0063    0.0008    0.0011    0.0005    0.0047   -0.0644    0.0005   -0.1148
          36    0.0121   -0.0334   -0.2086   -0.2340   -0.0100    0.0036   -0.2144   -0.0046
          37    0.0097    0.0309   -0.0664    0.1516   -0.0178   -0.0286    0.0588    0.0103
          38    0.5954   -0.0567   -0.0007   -0.0112    0.1314    0.1707    0.0035    0.0408
          39    0.0125    0.0766   -0.0846    0.1710    0.0034   -0.0014    0.0346    0.0006
          40   -0.0285   -0.0116    0.0369   -0.0678   -0.0914   -0.1619   -0.0294   -0.0609
          41   -0.2625    0.0239   -0.0070   -0.0035    0.1736    0.2252    0.0058    0.0560
          42    0.4959    0.0326   -0.0855    0.1748   -0.0186   -0.0306    0.0351   -0.0066
          43    0.0161   -0.0169    0.0254   -0.0704    0.0506    0.1194   -0.0247    0.0844
          44   -0.2498    0.0227   -0.0072   -0.0021    0.1704    0.2203    0.0063    0.0547
          45   -0.4933    0.1252   -0.0896    0.1808    0.0269    0.0296    0.0385    0.0079
          46    0.0145   -0.0010   -0.0063   -0.0132    0.4545   -0.0191    0.0055   -0.3115
          47   -0.0045    0.0013    0.0040    0.0080   -0.2943    0.1497   -0.0033    0.3965
          48   -0.1169   -0.5991   -0.3008   -0.0308   -0.0053   -0.0037    0.0932    0.0014
          49    0.0090   -0.0022   -0.0011   -0.0026    0.0518    0.2386    0.0086   -0.1049
          50    0.0046   -0.0012   -0.0053   -0.0106    0.4203   -0.4128   -0.0182    0.3916
          51    0.0519    0.6647   -0.2797   -0.0635   -0.0054   -0.0039    0.1019    0.0018


   Root No.       9        10        11        12        13        14        15        16

                 9 A      10 A      11 A      12 A      13 A      14 A      15 A      16 A   

                 482.5     506.0     557.2     607.0     662.1     723.9     791.4     858.6
  
           1   -0.0022    0.1068    0.2728   -0.0070   -0.2563    0.0016    0.0437    0.0012
           2    0.0279   -0.2614    0.2081   -0.0163   -0.1758   -0.0020   -0.0225   -0.0018
           3    0.0447    0.0133   -0.0089   -0.2525    0.0019   -0.0263   -0.0015   -0.0106
           4    0.0035    0.0418    0.2740   -0.0085   -0.2245    0.0009    0.0870   -0.0002
           5    0.0036    0.0084    0.2023   -0.0060    0.2271   -0.0032   -0.1659    0.0002
           6   -0.4702   -0.0459    0.0167    0.1891   -0.0016   -0.4643    0.0097    0.2612
           7    0.0290   -0.2087    0.4230   -0.0217   -0.0446   -0.0045   -0.2323    0.0006
           8   -0.0155    0.2202    0.1780    0.0021    0.1969    0.0007    0.1124   -0.0033
           9    0.2778    0.0319   -0.0140   -0.2180    0.0013   -0.0232   -0.0002   -0.1801
          10    0.0154   -0.1269    0.0095    0.0029    0.3049    0.0012    0.2445   -0.0045
          11   -0.0264    0.3030   -0.0377    0.0157    0.3760    0.0041    0.4231   -0.0063
          12   -0.1200   -0.0186    0.0112    0.2219   -0.0017   -0.0619   -0.0023   -0.2581
          13    0.0098   -0.0803   -0.0329    0.0051    0.2721    0.0013    0.2088   -0.0029
          14   -0.0090    0.0482   -0.1858    0.0069   -0.2118    0.0011   -0.0833    0.0051
          15   -0.0880   -0.0007   -0.0096   -0.2497    0.0018   -0.0244   -0.0033   -0.2316
          16   -0.0343    0.3349   -0.2049    0.0160   -0.0648    0.0032   -0.0807    0.0066
          17    0.0160   -0.1927   -0.0695   -0.0031   -0.0812   -0.0006   -0.0173    0.0001
          18    0.5159    0.0434   -0.0014    0.4977   -0.0087    0.0895   -0.0136    0.1024
          19   -0.0545    0.4438   -0.2749    0.0124   -0.1231   -0.0010   -0.3089    0.0051
          20   -0.0042    0.0568    0.0554   -0.0017   -0.0502   -0.0003   -0.0053    0.0017
          21   -0.0401   -0.0111    0.0068    0.0294    0.0021    0.0199    0.0097    0.0613
          22    0.0014    0.0317    0.1451   -0.0024   -0.0397   -0.0006    0.0030    0.0010
          23    0.0064   -0.0733    0.0145   -0.0046   -0.0654    0.0003   -0.0007   -0.0011
          24   -0.0024    0.0060   -0.0096   -0.3745    0.0052    0.2286    0.0050   -0.0872
          25    0.0153   -0.2129   -0.2316    0.0023   -0.1115    0.0011    0.2075   -0.0037
          26    0.0078   -0.1176   -0.1181    0.0007    0.2274   -0.0045   -0.3889    0.0071
          27   -0.3941   -0.0440    0.0187    0.2383    0.0000    0.7082   -0.0102   -0.1729
          28    0.0082   -0.0582    0.1160   -0.0060   -0.0123   -0.0010   -0.0611    0.0004
          29   -0.0065    0.0917    0.0963   -0.0013   -0.0440    0.0002    0.0114   -0.0005
          30    0.2862    0.0318   -0.0143   -0.2579    0.0028    0.3099   -0.0004    0.3305
          31    0.0038   -0.0492   -0.0783    0.0035    0.0513    0.0009    0.0778    0.0000
          32   -0.0069    0.0912    0.0402    0.0026    0.1209    0.0007    0.1068   -0.0028
          33   -0.1149   -0.0177    0.0104    0.1435    0.0005    0.1379    0.0059    0.6290
          34    0.0127   -0.1175    0.0061   -0.0003    0.0384   -0.0006    0.0197   -0.0023
          35    0.0033   -0.0392   -0.0415    0.0014   -0.0745   -0.0002   -0.0402    0.0001
          36   -0.1660   -0.0079   -0.0074   -0.3852    0.0060    0.0921    0.0121    0.4399
          37   -0.1917    0.1183   -0.0844   -0.1577   -0.0357   -0.0682   -0.0946   -0.1173
          38    0.0007    0.0395    0.0305    0.0023   -0.0178    0.0021   -0.0041   -0.0015
          39   -0.0831   -0.0055   -0.0010   -0.0571   -0.0004   -0.0247   -0.0046   -0.0363
          40    0.0733    0.0742   -0.1086    0.0791   -0.0335    0.0318   -0.0788    0.0576
          41   -0.0046    0.0528    0.0359   -0.0014   -0.0189    0.0013   -0.0032    0.0009
          42   -0.0879   -0.0170   -0.0017   -0.0605    0.0044   -0.0290    0.0027   -0.0408
          43    0.0597    0.1899   -0.0419    0.0760   -0.0385    0.0307   -0.0845    0.0538
          44   -0.0066    0.0487    0.0374   -0.0023   -0.0194   -0.0019   -0.0052   -0.0043
          45   -0.0903   -0.0034    0.0069   -0.0617   -0.0010   -0.0286    0.0009   -0.0445
          46    0.0047   -0.0291    0.0971   -0.0023    0.3552   -0.0042   -0.3568    0.0054
          47    0.0167   -0.2850   -0.3797    0.0043   -0.0596    0.0001   -0.1096    0.0027
          48    0.1666    0.0170   -0.0070   -0.0733    0.0004   -0.2045    0.0020    0.0431
          49    0.0180   -0.2622   -0.2732    0.0028   -0.1151    0.0026    0.2503   -0.0053
          50   -0.0140    0.1839    0.1327   -0.0020   -0.3668    0.0036    0.2483   -0.0032
          51    0.1631    0.0169   -0.0069   -0.0741   -0.0006   -0.2052    0.0033    0.0412


   Root No.      17        18        19        20        21        22        23        24

                17 A      18 A      19 A      20 A      21 A      22 A      23 A      24 A   

                 949.6     982.1    1015.5    1033.3    1045.0    1066.9    1082.1    1210.7
  
           1    0.0094   -0.0013   -0.3105    0.0096   -0.2719   -0.1188    0.0396   -0.2231
           2   -0.0047    0.0009   -0.1805    0.0237   -0.2549    0.4548   -0.0934    0.2531
           3   -0.3999    0.3282   -0.0229   -0.0650    0.0027   -0.0420   -0.1691   -0.0009
           4    0.0047   -0.0007   -0.1875    0.0046   -0.0912   -0.1543    0.0476    0.0419
           5   -0.0060    0.0006    0.2116   -0.0064    0.1983    0.0810   -0.0268    0.3107
           6    0.0926   -0.2706    0.0012   -0.0744    0.0009    0.0171    0.0534    0.0001
           7   -0.0065    0.0009    0.3524   -0.0165    0.3611   -0.0462   -0.0017   -0.0055
           8   -0.0055   -0.0008    0.1876   -0.0073    0.0360    0.0426   -0.0203   -0.2630
           9    0.2222    0.3126    0.0175    0.3352   -0.0012   -0.0186   -0.0412   -0.0001
          10   -0.0029    0.0001   -0.0583    0.0032    0.0044   -0.0376    0.0162   -0.1484
          11   -0.0048   -0.0001   -0.0558    0.0059    0.0175    0.0105    0.0076    0.1265
          12    0.0550    0.0052   -0.0166   -0.4470    0.0016    0.0380    0.1011   -0.0002
          13   -0.0014    0.0004   -0.0993    0.0070   -0.0798    0.0511   -0.0049    0.1368
          14    0.0099    0.0001   -0.1052   -0.0073    0.4196   -0.3806    0.0900    0.1047
          15   -0.2117   -0.3006    0.0019    0.2650   -0.0051   -0.0643   -0.2055    0.0025
          16    0.0131   -0.0008   -0.0394   -0.0092    0.0757   -0.2018    0.0357   -0.1405
          17   -0.0030    0.0012    0.1194   -0.0052   -0.0348    0.0508   -0.0197   -0.2565
          18    0.0609   -0.0034    0.0249    0.0574    0.0001    0.1006    0.4042   -0.0032
          19   -0.0001    0.0003    0.1687   -0.0014   -0.1138    0.3562   -0.1072    0.1258
          20   -0.0029    0.0037    0.2436   -0.0213   -0.2896   -0.2211    0.0442    0.0742
          21    0.1700   -0.0095   -0.0164   -0.1172   -0.0001   -0.0826   -0.3836    0.0030
          22    0.0007    0.0023   -0.1096    0.0002   -0.0799   -0.1378    0.0370    0.3240
          23    0.0001   -0.0018   -0.0283    0.0079   -0.0634    0.1858   -0.0403   -0.1570
          24    0.5766   -0.4592    0.0259    0.1080   -0.0001    0.0464    0.1887    0.0030
          25   -0.0065    0.0004    0.1246   -0.0028    0.0655    0.0581   -0.0161    0.0179
          26    0.0114   -0.0008   -0.2103    0.0044   -0.1246   -0.0975    0.0268   -0.0609
          27   -0.0427    0.1085   -0.0002    0.0232   -0.0003   -0.0035   -0.0091   -0.0000
          28   -0.0018   -0.0001    0.0890   -0.0047    0.0967   -0.0178    0.0010    0.0011
          29   -0.0004   -0.0003    0.0474   -0.0026   -0.0041   -0.0184    0.0011    0.0004
          30   -0.3846   -0.4368   -0.0234   -0.3911    0.0011    0.0164    0.0303    0.0001
          31    0.0042    0.0001   -0.2056    0.0056    0.0505   -0.1758    0.0565    0.4131
          32   -0.0042   -0.0001    0.0996   -0.0018   -0.0166    0.0957   -0.0277   -0.2369
          33   -0.0842   -0.0212    0.0228    0.5338   -0.0021   -0.0351   -0.0824   -0.0001
          34   -0.0012   -0.0029   -0.0286    0.0037    0.0076    0.0277   -0.0127   -0.3392
          35    0.0020   -0.0022   -0.0250   -0.0009    0.1260   -0.0915    0.0162   -0.1818
          36    0.2835    0.4642   -0.0000   -0.2991    0.0040    0.0683    0.2257   -0.0048
          37   -0.2740    0.0139    0.0707    0.1663   -0.0311    0.2015    0.4907    0.0165
          38    0.0082   -0.0077   -0.1130    0.0090    0.1161    0.0805   -0.0242   -0.0964
          39   -0.0789    0.0037    0.0087    0.0457   -0.0026    0.0381    0.1370   -0.0015
          40    0.1248   -0.0048    0.3605   -0.1026   -0.3829   -0.2037   -0.2172    0.0780
          41    0.0075   -0.0024   -0.1302    0.0061    0.1364    0.0844   -0.0322   -0.0419
          42   -0.0962    0.0080    0.0071    0.0539   -0.0029    0.0225    0.1769    0.0332
          43    0.1254   -0.0078   -0.2987   -0.0472    0.3290    0.3079   -0.3017   -0.0102
          44   -0.0075   -0.0014   -0.1190    0.0163    0.1184    0.0938    0.0061   -0.0279
          45   -0.0945    0.0013   -0.0045    0.0582    0.0067    0.0300    0.1766   -0.0339
          46    0.0080   -0.0005   -0.1514    0.0038   -0.0892   -0.0584    0.0174   -0.0422
          47    0.0060   -0.0002   -0.1442    0.0040   -0.0949   -0.0571    0.0180   -0.0721
          48    0.0081   -0.0223   -0.0004   -0.0053   -0.0002    0.0004    0.0012   -0.0002
          49   -0.0103    0.0008    0.2161   -0.0042    0.1305    0.1347   -0.0376    0.0887
          50   -0.0033    0.0001    0.0440   -0.0010    0.0279    0.0074   -0.0017    0.0123
          51    0.0107   -0.0225    0.0005   -0.0041    0.0003    0.0009    0.0017    0.0001


   Root No.      25        26        27        28        29        30        31        32

                25 A      26 A      27 A      28 A      29 A      30 A      31 A      32 A   

                1220.6    1242.2    1269.1    1279.2    1311.0    1376.3    1378.0    1394.4
  
           1   -0.1475    0.1867   -0.0093   -0.0314    0.2267    0.1089    0.0613   -0.0771
           2   -0.0651   -0.0480    0.0043    0.0090   -0.1109    0.0635   -0.0419   -0.0067
           3   -0.0004   -0.0012    0.0027    0.0023    0.0003    0.0006   -0.0007    0.0002
           4    0.0814   -0.1883   -0.0062    0.0285   -0.1448   -0.1463   -0.2725    0.0486
           5    0.1062    0.2266    0.0341   -0.0563    0.1024    0.3716   -0.1679   -0.2251
           6    0.0001    0.0004   -0.0005   -0.0009    0.0000   -0.0001    0.0005   -0.0002
           7   -0.1784   -0.1656   -0.0050    0.0461   -0.0411   -0.2042   -0.0095    0.1343
           8    0.0724    0.1253    0.0017   -0.0408    0.3279    0.0452    0.0741   -0.0161
           9    0.0002    0.0003    0.0000    0.0004    0.0002    0.0002    0.0000   -0.0002
          10   -0.1614    0.0837   -0.0024   -0.0084    0.1312   -0.1435    0.3164    0.0914
          11   -0.1674   -0.0882   -0.0031    0.0377   -0.1240   -0.2680   -0.1725    0.1618
          12    0.0003    0.0002    0.0006   -0.0009   -0.0003   -0.0004   -0.0005   -0.0001
          13    0.2460   -0.1640   -0.0011    0.0192   -0.2707    0.2353   -0.0930   -0.1807
          14   -0.0558    0.0023   -0.0179    0.0162   -0.1755   -0.0700   -0.0244    0.0011
          15   -0.0016   -0.0011   -0.0030    0.0018    0.0004    0.0008    0.0005    0.0001
          16   -0.0756   -0.1624   -0.0092    0.0090   -0.0345    0.4802   -0.0067   -0.2136
          17    0.0058    0.0592   -0.0004   -0.0122    0.1064    0.0460    0.3504   -0.0126
          18   -0.0001   -0.0023    0.0028   -0.0264   -0.0015   -0.0060    0.0007   -0.0072
          19    0.0389    0.1046   -0.0037    0.0563    0.0475   -0.4412    0.0206   -0.2245
          20   -0.0161   -0.0130   -0.2301   -0.0246    0.0230   -0.0072   -0.0562    0.0120
          21   -0.0169   -0.0343    0.0229   -0.2141   -0.0110   -0.0128    0.0002   -0.0074
          22    0.1001    0.4784   -0.0002   -0.0673   -0.3089   -0.0236    0.4071    0.0288
          23   -0.0962   -0.2686   -0.0017    0.0375    0.1899    0.0578   -0.2484   -0.0387
          24    0.0019    0.0037   -0.0072    0.0006   -0.0015   -0.0015    0.0024   -0.0014
          25    0.0158    0.0382    0.0023   -0.0073    0.0171    0.0082    0.0350    0.0078
          26   -0.0089   -0.0453   -0.0054    0.0076   -0.0092   -0.0141    0.0192   -0.0096
          27    0.0001   -0.0001   -0.0002    0.0001    0.0000    0.0000   -0.0001    0.0000
          28   -0.0422   -0.0521   -0.0006    0.0129   -0.0123   -0.0600   -0.0010    0.0394
          29    0.6644   -0.4777    0.0499    0.0333    0.0243   -0.0581    0.4060    0.0527
          30    0.0002   -0.0002   -0.0001    0.0006    0.0000   -0.0000    0.0001    0.0003
          31    0.1066   -0.0079    0.1023   -0.0337    0.5961   -0.1288   -0.0847    0.1077
          32   -0.1253   -0.0071   -0.0620    0.0284   -0.3645   -0.0175    0.0531   -0.0067
          33   -0.0006   -0.0002    0.0004   -0.0002    0.0001   -0.0000    0.0003    0.0001
          34    0.4958    0.3562   -0.0483   -0.0852   -0.0564   -0.1211   -0.3920    0.0577
          35    0.2224    0.2184   -0.0332   -0.0452   -0.0431   -0.1251   -0.2100    0.0631
          36    0.0042    0.0041    0.0057    0.0016   -0.0006   -0.0022   -0.0020   -0.0010
          37   -0.0094   -0.0236    0.0585   -0.3721   -0.0319    0.1330   -0.0133    0.3878
          38   -0.0176    0.0469    0.7093    0.0914   -0.0578   -0.0031    0.0072   -0.0147
          39   -0.0074   -0.0183    0.0317   -0.1756   -0.0169    0.0712   -0.0064    0.1688
          40    0.0080    0.0456    0.2367    0.1121   -0.0351    0.1613   -0.1021    0.4659
          41   -0.0329   -0.0466    0.1028   -0.3382   -0.0100   -0.1192    0.0443   -0.2316
          42    0.0411    0.0507   -0.4347    0.4476    0.0668   -0.0022    0.0150   -0.0580
          43    0.0315    0.0453   -0.2459    0.0602    0.0281    0.1969    0.0723    0.4667
          44    0.0214    0.0680    0.0228    0.3343    0.0145    0.1233    0.0244    0.2157
          45    0.0246    0.0920    0.3164    0.5468   -0.0069   -0.0036   -0.0115   -0.0582
          46   -0.0238   -0.0561   -0.0057    0.0121   -0.0328   -0.0561   -0.0114    0.0403
          47   -0.0481   -0.0730   -0.0095    0.0189   -0.0542   -0.1053    0.0102    0.0738
          48   -0.0001   -0.0002    0.0001   -0.0001   -0.0001   -0.0002    0.0000    0.0001
          49    0.0061    0.0736    0.0099   -0.0150    0.0460    0.1048   -0.0073   -0.0722
          50    0.0007    0.0038    0.0000   -0.0002   -0.0047   -0.0027   -0.0141   -0.0007
          51    0.0000    0.0001    0.0001   -0.0001    0.0001    0.0001    0.0000   -0.0001


   Root No.      33        34        35        36        37        38        39        40

                33 A      34 A      35 A      36 A      37 A      38 A      39 A      40 A   

                1483.3    1533.4    1575.3    1693.2    1710.8    1764.0    2663.9    2670.5
  
           1   -0.0149   -0.3096   -0.1251    0.2780   -0.3604    0.0165   -0.0000    0.0022
           2    0.0172   -0.1138    0.2731   -0.3298    0.0191    0.0419    0.0039    0.0117
           3   -0.0000    0.0001   -0.0001    0.0002    0.0001    0.0000   -0.0004   -0.0000
           4    0.0820    0.3684   -0.2629   -0.0181    0.5018   -0.0830    0.0003    0.0001
           5   -0.1731   -0.2470   -0.2632    0.1896    0.2654   -0.0468    0.0003   -0.0000
           6   -0.0001    0.0000    0.0001    0.0001    0.0000   -0.0001   -0.0001    0.0000
           7    0.0083    0.0179    0.2614    0.0877   -0.2026    0.0460    0.0002   -0.0002
           8    0.0046    0.3997   -0.0088   -0.4769   -0.2159   -0.0083    0.0001    0.0008
           9   -0.0000    0.0001   -0.0001   -0.0002    0.0001   -0.0000    0.0000   -0.0000
          10    0.0395   -0.3130   -0.2121   -0.3073    0.3364   -0.0479    0.0005    0.0002
          11    0.0094   -0.1126    0.2685    0.3346   -0.0207    0.0225    0.0003   -0.0002
          12    0.0000   -0.0002    0.0002    0.0001    0.0000    0.0000   -0.0001   -0.0000
          13   -0.0306    0.2791   -0.2134    0.0506   -0.4411    0.0373   -0.0006    0.0001
          14    0.0225   -0.1234   -0.2921   -0.2104   -0.2110    0.0185    0.0003    0.0090
          15   -0.0000   -0.0001   -0.0002   -0.0002   -0.0003    0.0000   -0.0004    0.0001
          16   -0.0196   -0.0195    0.5203   -0.1107    0.2304   -0.0035    0.0050   -0.0021
          17   -0.0382    0.3725   -0.0009    0.5088    0.1817   -0.0485   -0.0035   -0.0191
          18    0.0000    0.0003    0.0000   -0.0001   -0.0001    0.0000   -0.0157    0.0028
          19   -0.0016    0.0071   -0.1206    0.0130   -0.0214   -0.0006   -0.0054   -0.0052
          20    0.0061   -0.0612    0.0032   -0.0390   -0.0139    0.0031   -0.0478   -0.2731
          21   -0.0005   -0.0005   -0.0018    0.0013   -0.0013    0.0002   -0.2713    0.0474
          22    0.0044    0.1078    0.2131   -0.0320   -0.0019   -0.0173   -0.0058   -0.0205
          23   -0.0098   -0.1326   -0.0824   -0.0034   -0.0236    0.0131   -0.0095   -0.0319
          24   -0.0000    0.0009    0.0005    0.0001    0.0002   -0.0001    0.0006    0.0002
          25   -0.3309   -0.0013   -0.0235   -0.0203    0.0706    0.7046    0.0003    0.0005
          26    0.5937    0.0252   -0.0141    0.0538    0.0313    0.3922   -0.0001    0.0004
          27    0.0002    0.0001   -0.0002    0.0000    0.0002    0.0014    0.0001   -0.0000
          28    0.0097    0.0023    0.0565    0.0145   -0.0249    0.0025   -0.0012    0.0007
          29    0.0051   -0.3092    0.0206    0.0266    0.0020   -0.0211   -0.0000   -0.0001
          30    0.0000   -0.0001   -0.0001    0.0001   -0.0001    0.0000    0.0001   -0.0000
          31   -0.0066    0.1005    0.1770    0.0380   -0.0150    0.0045   -0.0010   -0.0004
          32    0.0149   -0.1244   -0.0750   -0.0003    0.0283   -0.0029   -0.0016   -0.0001
          33    0.0000   -0.0000   -0.0001   -0.0000    0.0001   -0.0000    0.0001   -0.0000
          34    0.0054   -0.1017    0.2139    0.0107    0.0299    0.0057    0.0010    0.0133
          35    0.0150   -0.1141    0.0795   -0.0252    0.0228    0.0026   -0.0013   -0.0215
          36    0.0001   -0.0007    0.0005   -0.0003    0.0000    0.0000    0.0004   -0.0003
          37    0.0132    0.0046   -0.0679    0.0083   -0.0175   -0.0006   -0.3104    0.0609
[...]
 TRANSITION DIPOLE   0.4880         C  7 -- H 14         +25.8% ( 43.8%)      5.7%
 TRAVEL (Ang.)       0.3709         C  7 -- H 15         +17.0% ( 35.6%)     13.3%
 REDUCED MASS        0.3862         C  6 -- C  7          +4.1% ( 17.4%)      0.1%
 EFFECTIVE MASS      1.4787
 FORCE CONSTANT      0.3665

 VIBRATION         28   28A           ATOM PAIR      ENERGY CONTRIBUTION    RADIAL
 FREQUENCY          1279.20         C  7 -- H 15         +39.8% ( 54.9%)      0.3%
 TRANSITION DIPOLE   0.6149         C  7 -- H 14         +31.8% ( 49.1%)      1.2%
 TRAVEL (Ang.)       0.3921         C  7 -- H 13         +18.2% ( 37.2%)     17.1%
 REDUCED MASS        0.3429         C  6 -- C  7          +3.3% ( 15.8%)      6.4%
 EFFECTIVE MASS      1.5495
 FORCE CONSTANT      0.3306

 VIBRATION         29   29A           ATOM PAIR      ENERGY CONTRIBUTION    RADIAL
 FREQUENCY          1310.95         C  4 -- H 11         +26.0% ( 65.7%)      0.3%
 TRANSITION DIPOLE   0.3565         C  1 -- H  8         +12.7% ( 45.9%)      0.0%
 TRAVEL (Ang.)       0.2911         C  3 -- C  4         +10.5% ( 41.6%)     97.7%
 REDUCED MASS        0.6069         C  4 -- C  5          +8.7% ( 38.0%)     98.1%
 EFFECTIVE MASS      4.7120
 FORCE CONSTANT      0.6145

 VIBRATION         30   30A           ATOM PAIR      ENERGY CONTRIBUTION    RADIAL
 FREQUENCY          1376.34         C  6 -- C  7         +19.0% ( 64.9%)     99.4%
 TRANSITION DIPOLE   1.3109         C  5 -- C  6          +9.8% ( 46.5%)     69.7%
 TRAVEL (Ang.)       0.1752         C  1 -- C  6          +9.0% ( 44.7%)     27.8%
 REDUCED MASS        1.5962         C  7 -- H 15          +7.6% ( 40.9%)      4.5%
 EFFECTIVE MASS     10.3770
 FORCE CONSTANT      1.7815

 VIBRATION         31   31A           ATOM PAIR      ENERGY CONTRIBUTION    RADIAL
 FREQUENCY          1377.97         C  1 -- H  8         +12.0% ( 43.4%)      0.0%
 TRANSITION DIPOLE   0.0961         C  5 -- H 12         +10.3% ( 40.1%)      0.2%
 TRAVEL (Ang.)       0.2785         C  4 -- C  5          +8.8% ( 37.0%)     89.2%
 REDUCED MASS        0.6310         C  3 -- H 10          +8.5% ( 36.5%)      0.0%
 EFFECTIVE MASS      4.5434
 FORCE CONSTANT      0.7060

 VIBRATION         32   32A           ATOM PAIR      ENERGY CONTRIBUTION    RADIAL
 FREQUENCY          1394.39         C  7 -- H 14         +21.3% ( 48.8%)      0.7%
 TRANSITION DIPOLE   0.8600         C  7 -- H 15         +20.8% ( 48.2%)      1.0%
 TRAVEL (Ang.)       0.3994         C  7 -- H 13         +14.4% ( 40.1%)      0.6%
 REDUCED MASS        0.3031         C  4 -- C  5          +6.1% ( 26.1%)     73.1%
 EFFECTIVE MASS      3.4927
 FORCE CONSTANT      0.3473

 VIBRATION         33   33A           ATOM PAIR      ENERGY CONTRIBUTION    RADIAL
 FREQUENCY          1483.34         N  9 -- O 17         +30.7% ( 76.9%)     64.2%
 TRANSITION DIPOLE   4.9134         N  9 -- O 16         +30.6% ( 76.7%)     64.1%
 TRAVEL (Ang.)       0.0957         C  2 -- N  9         +17.8% ( 58.4%)    100.0%
 REDUCED MASS        4.9590         O 16 -- O 17         +17.5% ( 58.0%)    100.0%
 EFFECTIVE MASS     14.8795
 FORCE CONSTANT      6.4287

 VIBRATION         34   34A           ATOM PAIR      ENERGY CONTRIBUTION    RADIAL
 FREQUENCY          1533.43         C  1 -- C  2         +14.2% ( 52.5%)     96.3%
 TRANSITION DIPOLE   0.1134         C  2 -- C  3         +13.5% ( 51.3%)     24.8%
 TRAVEL (Ang.)       0.1766         C  3 -- H 10         +10.4% ( 44.8%)      0.0%
 REDUCED MASS        1.4105         C  4 -- C  5          +9.9% ( 43.8%)    100.0%
 EFFECTIVE MASS      9.8084
 FORCE CONSTANT      1.9541

 VIBRATION         35   35A           ATOM PAIR      ENERGY CONTRIBUTION    RADIAL
 FREQUENCY          1575.29         C  5 -- C  6         +16.9% ( 57.4%)     63.7%
 TRANSITION DIPOLE   0.8372         C  1 -- C  6         +14.8% ( 53.7%)     62.3%
 TRAVEL (Ang.)       0.1614         C  6 -- C  7         +10.6% ( 45.4%)    100.0%
 REDUCED MASS        1.6440         C  2 -- C  3          +9.1% ( 42.1%)     71.3%
 EFFECTIVE MASS      9.9469
 FORCE CONSTANT      2.4036

 VIBRATION         36   36A           ATOM PAIR      ENERGY CONTRIBUTION    RADIAL
 FREQUENCY          1693.21         C  1 -- C  6         +18.3% ( 59.7%)     99.5%
 TRANSITION DIPOLE   0.1822         C  3 -- C  4         +17.7% ( 58.7%)     99.6%
 TRAVEL (Ang.)       0.1258         C  5 -- C  6         +11.0% ( 46.2%)     51.9%
 REDUCED MASS        2.5176         C  2 -- C  3          +9.3% ( 42.6%)     57.4%
 EFFECTIVE MASS     11.9129
 FORCE CONSTANT      4.2527

 VIBRATION         37   37A           ATOM PAIR      ENERGY CONTRIBUTION    RADIAL
 FREQUENCY          1710.82         C  1 -- C  2         +17.8% ( 59.3%)     92.5%
 TRANSITION DIPOLE   0.9623         C  2 -- C  3         +15.9% ( 56.0%)     83.5%
 TRAVEL (Ang.)       0.1262         C  4 -- C  5         +13.3% ( 51.2%)     93.8%
 REDUCED MASS        2.4752         C  5 -- C  6         +11.9% ( 48.4%)     77.4%
 EFFECTIVE MASS     11.9954
 FORCE CONSTANT      4.2683

 VIBRATION         38   38A           ATOM PAIR      ENERGY CONTRIBUTION    RADIAL
 FREQUENCY          1764.00         N  9 -- O 17         +35.2% ( 84.6%)     89.4%
 TRANSITION DIPOLE   6.3129         N  9 -- O 16         +35.2% ( 84.6%)     89.4%
 TRAVEL (Ang.)       0.0750         C  2 -- N  9         +22.1% ( 67.0%)      0.0%
 REDUCED MASS        6.7876         O 16 -- O 17          +6.0% ( 34.8%)      0.0%
 EFFECTIVE MASS     14.5896
 FORCE CONSTANT     12.4440

 VIBRATION         39   39A           ATOM PAIR      ENERGY CONTRIBUTION    RADIAL
 FREQUENCY          2663.90         C  7 -- H 13         +65.9% ( 83.7%)     99.5%
 TRANSITION DIPOLE   0.7470         C  7 -- H 14         +26.3% ( 52.9%)     92.7%
 TRAVEL (Ang.)       0.2200         C  7 -- H 15          +6.9% ( 27.1%)     67.5%
 REDUCED MASS        0.5232         C  6 -- C  7          +0.8% (  9.5%)      0.1%
 EFFECTIVE MASS      1.4391
 FORCE CONSTANT      2.1874

 VIBRATION         40   40A           ATOM PAIR      ENERGY CONTRIBUTION    RADIAL
 FREQUENCY          2670.48         C  7 -- H 15         +56.3% ( 77.4%)     98.9%
 TRANSITION DIPOLE   0.5891         C  7 -- H 14         +39.1% ( 64.6%)     96.1%
 TRAVEL (Ang.)       0.2276         C  7 -- H 13          +3.4% ( 19.1%)     43.8%
 REDUCED MASS        0.4875         C  6 -- C  7          +0.9% (  9.9%)      0.0%
 EFFECTIVE MASS      1.4504
 FORCE CONSTANT      2.0483

 VIBRATION         41   41A           ATOM PAIR      ENERGY CONTRIBUTION    RADIAL
 FREQUENCY          2732.34         C  3 -- H 10         +53.9% ( 74.1%)    100.0%
 TRANSITION DIPOLE   1.0318         C  1 -- H  8         +42.0% ( 65.5%)    100.0%
 TRAVEL (Ang.)       0.2334         C  4 -- H 11          +1.9% ( 13.9%)     99.5%
 REDUCED MASS        0.4530         C  3 -- C  4          +0.6% (  7.7%)     15.9%
 EFFECTIVE MASS      1.3696
 FORCE CONSTANT      1.9924

 VIBRATION         42   42A           ATOM PAIR      ENERGY CONTRIBUTION    RADIAL
 FREQUENCY          2734.19         C  1 -- H  8         +54.2% ( 74.5%)    100.0%
 TRANSITION DIPOLE   0.7627         C  3 -- H 10         +36.8% ( 61.3%)    100.0%
 TRAVEL (Ang.)       0.2414         C  4 -- H 11          +6.3% ( 25.5%)     99.8%
 REDUCED MASS        0.4231         C  1 -- C  2          +0.7% (  8.2%)     31.9%
 EFFECTIVE MASS      1.4072
 FORCE CONSTANT      1.8637

 VIBRATION         43   43A           ATOM PAIR      ENERGY CONTRIBUTION    RADIAL
 FREQUENCY          2749.80         C  5 -- H 12         +60.5% ( 78.6%)    100.0%
 TRANSITION DIPOLE   0.7137         C  4 -- H 11         +33.6% ( 58.6%)     99.9%
 TRAVEL (Ang.)       0.2295         C  3 -- H 10          +3.4% ( 18.7%)     99.4%
 REDUCED MASS        0.4654         C  4 -- C  5          +0.9% (  9.4%)      0.4%
 EFFECTIVE MASS      1.3659
 FORCE CONSTANT      2.0733

 VIBRATION         44   44A           ATOM PAIR      ENERGY CONTRIBUTION    RADIAL
 FREQUENCY          2761.64         C  4 -- H 11         +55.5% ( 75.2%)    100.0%
 TRANSITION DIPOLE   1.0589         C  5 -- H 12         +36.1% ( 60.6%)    100.0%
 TRAVEL (Ang.)       0.2386         C  3 -- H 10          +3.6% ( 19.0%)     99.6%
 REDUCED MASS        0.4291         C  4 -- C  5          +1.2% ( 10.9%)     96.6%
 EFFECTIVE MASS      1.4187
 FORCE CONSTANT      1.9280

 VIBRATION         45   45A           ATOM PAIR      ENERGY CONTRIBUTION    RADIAL
 FREQUENCY          2778.12         C  7 -- H 15         +35.5% ( 57.3%)     95.9%
 TRANSITION DIPOLE   0.6048         C  7 -- H 14         +32.9% ( 55.2%)     95.5%
 TRAVEL (Ang.)       0.2785         C  7 -- H 13         +28.7% ( 51.5%)     94.4%
 REDUCED MASS        0.3130         C  5 -- H 12          +1.3% ( 10.8%)     99.6%
 EFFECTIVE MASS      1.1542
 FORCE CONSTANT      1.4231

      SYMMETRY NUMBER FOR POINT-GROUP C1  =  1


          SYSTEM IS A GROUND STATE



 m-nitrotoluen


          MOLECULE IS NOT LINEAR

          THERE ARE 45 GENUINE VIBRATIONS IN THIS SYSTEM
          THIS THERMODYNAMICS CALCULATION IS LIMITED TO
          MOLECULES WHICH HAVE NO INTERNAL ROTATIONS




                    CALCULATED THERMODYNAMIC PROPERTIES
                                          *
   TEMP. (K)   PARTITION FUNCTION   H.O.F.    ENTHALPY  HEAT CAPACITY ENTROPY
                                   KCAL/MOL   CAL/MOLE    CAL/K/MOL  CAL/K/MOL


 298.00  VIB.     0.9870D+03                  3809.7836    25.8249    26.4856
         ROT.     0.6272D+06                   888.2803     2.9808    29.5080
         INT.     0.6190D+09                  4698.0639    28.8057    55.9936
         TRA.     0.1553D+28                  1480.4672     4.9680    40.6572
         TOT.                        8.215    6178.5310    33.7737    96.6507

 200.00  VIB.     0.1189D+03                  1725.4813    16.8096    18.1235
         ROT.     0.3448D+06                   596.1613     2.9808    28.3193
         INT.     0.4102D+08                  2321.6426    19.7904    46.4428
         TRA.     0.8537D+27                   993.6021     4.9680    38.6760
         TOT.                        5.352    3315.2447    24.7584    85.1189

 210.00  VIB.     0.1477D+03                  1898.0063    17.6970    18.9651
         ROT.     0.3710D+06                   625.9693     2.9808    28.4648
         INT.     0.5481D+08                  2523.9756    20.6778    47.4299
         TRA.     0.9185D+27                  1043.2822     4.9680    38.9184
         TOT.                        5.604    3567.2579    25.6458    86.3483

 220.00  VIB.     0.1834D+03                  2079.4533    18.5939    19.8090
         ROT.     0.3978D+06                   655.7774     2.9808    28.6034
         INT.     0.7298D+08                  2735.2308    21.5747    48.4125
         TRA.     0.9848D+27                  1092.9623     4.9680    39.1495
         TOT.                        5.865    3828.1931    26.5428    87.5620

 230.00  VIB.     0.2277D+03                  2269.9150    19.4999    20.6555
         ROT.     0.4253D+06                   685.5855     2.9808    28.7359
         INT.     0.9682D+08                  2955.5005    22.4807    49.3914
         TRA.     0.1053D+28                  1142.6424     4.9680    39.3704
         TOT.                        6.135    4098.1429    27.4487    88.7618

 240.00  VIB.     0.2825D+03                  2469.4781    20.4141    21.5047
         ROT.     0.4533D+06                   715.3935     2.9808    28.8628
         INT.     0.1281D+09                  3184.8717    23.3949    50.3675
         TRA.     0.1122D+28                  1192.3226     4.9680    39.5818
         TOT.                        6.414    4377.1942    28.3629    89.9493

 250.00  VIB.     0.3505D+03                  2678.2215    21.3357    22.3567
         ROT.     0.4819D+06                   745.2016     2.9808    28.9845
         INT.     0.1689D+09                  3423.4231    24.3165    51.3412
         TRA.     0.1193D+28                  1242.0027     4.9680    39.7846
         TOT.                        6.702    4665.4258    29.2846    91.1258

 260.00  VIB.     0.4349D+03                  2896.2140    22.2637    23.2116
         ROT.     0.5111D+06                   775.0097     2.9808    29.1014
         INT.     0.2223D+09                  3671.2237    25.2445    52.3130
         TRA.     0.1265D+28                  1291.6828     4.9680    39.9795
         TOT.                        7.000    4962.9064    30.2125    92.2924

 270.00  VIB.     0.5395D+03                  3123.5128    23.1968    24.0693
         ROT.     0.5409D+06                   804.8177     2.9808    29.2139
         INT.     0.2918D+09                  3928.3306    26.1776    53.2832
         TRA.     0.1339D+28                  1341.3629     4.9680    40.1670
         TOT.                        7.306    5269.6934    31.1456    93.4501

 280.00  VIB.     0.6693D+03                  3360.1624    24.1336    24.9298
         ROT.     0.5712D+06                   834.6258     2.9808    29.3223
         INT.     0.3823D+09                  4194.7881    27.1144    54.2521
         TRA.     0.1414D+28                  1391.0430     4.9680    40.3476
         TOT.                        7.622    5585.8311    32.0824    94.5998

 290.00  VIB.     0.8305D+03                  3606.1931    25.0728    25.7931
         ROT.     0.6021D+06                   864.4339     2.9808    29.4269
         INT.     0.5000D+09                  4470.6269    28.0536    55.2200
         TRA.     0.1491D+28                  1440.7231     4.9680    40.5220
         TOT.                        7.948    5911.3500    33.0216    95.7419

 300.00  VIB.     0.1031D+04                  3861.6213    26.0129    26.6589
         ROT.     0.6335D+06                   894.2419     2.9808    29.5279
         INT.     0.6529D+09                  4755.8632    28.9937    56.1869
         TRA.     0.1568D+28                  1490.4032     4.9680    40.6904
         TOT.                        8.283    6246.2664    33.9617    96.8773

 310.00  VIB.     0.1279D+04                  4126.4488    26.9524    27.5272
         ROT.     0.6655D+06                   924.0500     2.9808    29.6257
         INT.     0.8511D+09                  5050.4988    29.9332    57.1529
         TRA.     0.1647D+28                  1540.0833     4.9680    40.8533
         TOT.                        8.627    6590.5821    34.9012    98.0062

 320.00  VIB.     0.1588D+04                  4400.6632    27.8900    28.3977
         ROT.     0.6979D+06                   953.8580     2.9808    29.7203
         INT.     0.1108D+10                  5354.5213    30.8708    58.1181
         TRA.     0.1728D+28                  1589.7634     4.9680    41.0110
         TOT.                        8.981    6944.2847    35.8388    99.1291

 330.00  VIB.     0.1971D+04                  4684.2383    28.8243    29.2703
         ROT.     0.7309D+06                   983.6661     2.9808    29.8120
         INT.     0.1441D+10                  5667.9044    31.8051    59.0823
         TRA.     0.1809D+28                  1639.4435     4.9680    41.1639
         TOT.                        9.344    7307.3479    36.7731   100.2462

 340.00  VIB.     0.2448D+04                  4977.1344    29.7540    30.1446
         ROT.     0.7644D+06                  1013.4742     2.9808    29.9010
         INT.     0.1871D+10                  5990.6086    32.7348    60.0456
         TRA.     0.1892D+28                  1689.1236     4.9680    41.3122
         TOT.                        9.716    7679.7322    37.7029   101.3578

 350.00  VIB.     0.3040D+04                  5279.2998    30.6780    31.0204
         ROT.     0.7983D+06                  1043.2822     2.9808    29.9874
         INT.     0.2427D+10                  6322.5820    33.6588    61.0079
         TRA.     0.1976D+28                  1738.8037     4.9680    41.4562
         TOT.                       10.098    8061.3858    38.6268   102.4641

 360.00  VIB.     0.3777D+04                  5590.6709    31.5950    31.8975
         ROT.     0.8328D+06                  1073.0903     2.9808    30.0714
         INT.     0.3145D+10                  6663.7612    34.5758    61.9689
         TRA.     0.2062D+28                  1788.4838     4.9680    41.5962
         TOT.                       10.489    8452.2450    39.5438   103.5651

 370.00  VIB.     0.4693D+04                  5911.1736    32.5041    32.7756
         ROT.     0.8677D+06                  1102.8984     2.9808    30.1531
         INT.     0.4072D+10                  7014.0720    35.4849    62.9287
         TRA.     0.2148D+28                  1838.1639     4.9680    41.7323
         TOT.                       10.889    8852.2359    40.4530   104.6610

 380.00  VIB.     0.5833D+04                  6240.7243    33.4045    33.6544
         ROT.     0.9031D+06                  1132.7064     2.9808    30.2326
         INT.     0.5268D+10                  7373.4308    36.3853    63.8870
         TRA.     0.2236D+28                  1887.8440     4.9680    41.8648
         TOT.                       11.298    9261.2748    41.3533   105.7518

 390.00  VIB.     0.7250D+04                  6579.2308    34.2952    34.5336
         ROT.     0.9390D+06                  1162.5145     2.9808    30.3100
         INT.     0.6808D+10                  7741.7453    37.2760    64.8436
         TRA.     0.2325D+28                  1937.5242     4.9680    41.9938
         TOT.                       11.716    9679.2694    42.2440   106.8375

 400.00  VIB.     0.9014D+04                  6926.5932    35.1755    35.4130
         ROT.     0.9754D+06                  1192.3226     2.9808    30.3855
         INT.     0.8792D+10                  8118.9157    38.1563    65.7985
         TRA.     0.2414D+28                  1987.2043     4.9680    42.1196
         TOT.                       12.143   10106.1200    43.1244   107.9181

   *: NOTE: HEATS OF FORMATION ARE RELATIVE TO THE
            ELEMENTS IN THEIR STANDARD STATE AT 298K
              (=  Standard Enthalpy of Formation).

            Hvib:  Zero-point energy is not included.
                   frequencies of less than zero cm-1 are not included.
            Hrot = (3/2)RT
            Htra = (3/2)RT + pV = (5/2)RT

            Heat capacity is Cp, not Cv

          For more information, see: HTTP://OpenMOPAC.net/Manual/thermochemistry.html


           FORCE CONSTANT IN CARTESIAN COORDINATES (Millidynes/A)

    ATOM   CHEMICAL       X               Y               Z
   NUMBER   SYMBOL  FORCE CONSTANT  FORCE CONSTANT  FORCE CONSTANT

      1       C       10.876244       10.174486        2.377460
      2       C       11.982852       10.820147        2.372787
      3       C        9.840043       11.311333        2.385747
      4       C       10.894430       10.245082        2.409109
      5       C       11.021720        9.915778        2.434836
      6       C       11.263811       11.334668        2.734949
      7       C        7.592854        6.462593        6.011057
      8       H        1.809439        3.332104        0.392567
      9       N       15.696364       12.264501        2.976597
     10       H        4.183731        0.939430        0.393967
     11       H        1.779770        3.391733        0.391686
     12       H        1.714179        3.474494        0.391450
     13       H        1.206703        0.535553        3.579289
     14       H        1.387262        2.724020        1.290675
     15       H        1.324576        2.865436        1.226943
     16       O        4.912030        9.201915        0.342076
     17       O       12.503602        1.597891        0.342745

 **********************
 *                    *
 * JOB ENDED NORMALLY *
 *                    *
 **********************



 TOTAL JOB TIME:            14.87 SECONDS

 == MOPAC DONE ==
