 *******************************************************************************
 **                                                                           **
 **                              MOPAC v22.1.0                                **
 **                                                                           **
 *******************************************************************************
 **          Digital Object Identifier (DOI): 10.5281/zenodo.6511958          **
 **    Visit the DOI location for information on how to cite this program.    **
 *******************************************************************************

                              PM7 CALCULATION RESULTS

 *******************************************************************************
 *  CALCULATION DONE:                                Fri Mar 15 21:25:01 2024  *
 *  PM7        - The PM7 Hamiltonian to be used
 *  SINGLET    - SPIN STATE DEFINED AS A SINGLET
 *
 *
 *
 *                 CHARGE ON SYSTEM = 0
 *
 *
 *
 *  PRECISE    - TIGHTER CRITERIA TO BE USED
 *  T=         - A TIME OF 172800.0 SECONDS REQUESTED
 *  DUMP=N     - RESTART FILE WRITTEN EVERY 7200.0 SECONDS REQUESTED
 *  LARGE      - EXPANDED OUTPUT TO BE PRINTED
 *******************************************************************************
 PRECISE LARGE CHARGE=0 SINGLET  PM7
 p-nitrotoluen

   ATOM   CHEMICAL          X               Y               Z
  NUMBER   SYMBOL      (ANGSTROMS)     (ANGSTROMS)     (ANGSTROMS)
 
     1       C          1.14244000  *  -0.06538000  *   0.07354000  *
     2       C          0.91321000  *  -1.44341000  *   0.06847000  *
     3       C         -0.40049000  *  -1.92329000  *   0.00054000  *
     4       C         -1.48060000  *  -1.03462000  *  -0.06514000  *
     5       C         -1.24014000  *   0.34150000  *  -0.05948000  *
     6       C          0.06932000  *   0.83510000  *   0.02230000  *
     7       C          0.32408000  *   2.31442000  *  -0.00967000  *
     8       H          2.16578000  *   0.30338000  *   0.11830000  *
     9       N         -0.64706000  *  -3.37022000  *  -0.00838000  *
    10       H         -2.50615000  *  -1.39299000  *  -0.12418000  *
    11       H         -2.08239000  *   1.02874000  *  -0.11885000  *
    12       H          0.44761000  *   2.64986000  *  -1.04396000  *
    13       H          1.22731000  *   2.56710000  *   0.55557000  *
    14       H         -0.50726000  *   2.86398000  *   0.44424000  *
    15       H          1.76245000  *  -2.12192000  *   0.11404000  *
    16       O          0.33546000  *  -4.12385000  *   0.04889000  *
    17       O         -1.82364000  *  -3.75514000  *  -0.07301000  *
 


          CARTESIAN COORDINATES 

    NO.       ATOM           X           Y           Z

     1         C          1.1424     -0.0654      0.0735
     2         C          0.9132     -1.4434      0.0685
     3         C         -0.4005     -1.9233      0.0005
     4         C         -1.4806     -1.0346     -0.0651
     5         C         -1.2401      0.3415     -0.0595
     6         C          0.0693      0.8351      0.0223
     7         C          0.3241      2.3144     -0.0097
     8         H          2.1658      0.3034      0.1183
     9         N         -0.6471     -3.3702     -0.0084
    10         H         -2.5061     -1.3930     -0.1242
    11         H         -2.0824      1.0287     -0.1188
    12         H          0.4476      2.6499     -1.0440
    13         H          1.2273      2.5671      0.5556
    14         H         -0.5073      2.8640      0.4442
    15         H          1.7624     -2.1219      0.1140
    16         O          0.3355     -4.1239      0.0489
    17         O         -1.8236     -3.7551     -0.0730

 General Reference for PM7:
 "Optimization of Parameters for Semiempirical Methods VI: More Modifications to the 
 NDDO Approximations and Re-optimization of Parameters", J. J. P. Stewart, J. Mol. Mod., 1:32, 19 (2013)
 https://link.springer.com/article/10.1007/s00894-012-1667-x

           Empirical Formula: C7 H7 N O2  =    17 atoms



      MOLECULAR POINT GROUP   :   Cs  


 SINGLET STATE CALCULATION


      RHF CALCULATION, NO. OF DOUBLY OCCUPIED LEVELS = 26


          Geometry optimization using EF

          DIAGONAL MATRIX USED AS START HESSIAN

 CYCLE:     1 TIME:   0.055 TIME LEFT:  2.00D  GRAD.:    64.615 HEAT:  9.014848
 CYCLE:     2 TIME:   0.094 TIME LEFT:  2.00D  GRAD.:    60.948 HEAT:  8.461462
 CYCLE:     3 TIME:   0.047 TIME LEFT:  2.00D  GRAD.:    49.514 HEAT:  8.217797
 CYCLE:     4 TIME:   0.086 TIME LEFT:  2.00D  GRAD.:    20.880 HEAT:  7.720768
 CYCLE:     5 TIME:   0.086 TIME LEFT:  2.00D  GRAD.:    14.547 HEAT:  7.647864
 CYCLE:     6 TIME:   0.047 TIME LEFT:  2.00D  GRAD.:    10.282 HEAT:  7.612636
 CYCLE:     7 TIME:   0.039 TIME LEFT:  2.00D  GRAD.:    13.901 HEAT:  7.602555
 CYCLE:     8 TIME:   0.047 TIME LEFT:  2.00D  GRAD.:     9.736 HEAT:  7.581948
 CYCLE:     9 TIME:   0.047 TIME LEFT:  2.00D  GRAD.:     9.253 HEAT:  7.576226
 CYCLE:    10 TIME:   0.047 TIME LEFT:  2.00D  GRAD.:     4.930 HEAT:  7.555733
 CYCLE:    11 TIME:   0.086 TIME LEFT:  2.00D  GRAD.:     4.408 HEAT:  7.551614
 CYCLE:    12 TIME:   0.039 TIME LEFT:  2.00D  GRAD.:     2.866 HEAT:  7.549162
 CYCLE:    13 TIME:   0.047 TIME LEFT:  2.00D  GRAD.:     2.033 HEAT:  7.546948
 CYCLE:    14 TIME:   0.039 TIME LEFT:  2.00D  GRAD.:     1.484 HEAT:  7.546032
 CYCLE:    15 TIME:   0.039 TIME LEFT:  2.00D  GRAD.:     1.466 HEAT:  7.545554
 CYCLE:    16 TIME:   0.039 TIME LEFT:  2.00D  GRAD.:     1.096 HEAT:  7.545299
 CYCLE:    17 TIME:   0.047 TIME LEFT:  2.00D  GRAD.:     0.619 HEAT:  7.544950
 CYCLE:    18 TIME:   0.039 TIME LEFT:  2.00D  GRAD.:     0.608 HEAT:  7.544875
 CYCLE:    19 TIME:   0.039 TIME LEFT:  2.00D  GRAD.:     0.497 HEAT:  7.544817
 CYCLE:    20 TIME:   0.047 TIME LEFT:  2.00D  GRAD.:     0.232 HEAT:  7.544750
 CYCLE:    21 TIME:   0.039 TIME LEFT:  2.00D  GRAD.:     0.274 HEAT:  7.544731
 CYCLE:    22 TIME:   0.047 TIME LEFT:  2.00D  GRAD.:     0.214 HEAT:  7.544717
 CYCLE:    23 TIME:   0.039 TIME LEFT:  2.00D  GRAD.:     0.088 HEAT:  7.544693
 CYCLE:    24 TIME:   0.039 TIME LEFT:  2.00D  GRAD.:     0.088 HEAT:  7.544684
 CYCLE:    25 TIME:   0.039 TIME LEFT:  2.00D  GRAD.:     0.092 HEAT:  7.544671
 CYCLE:    26 TIME:   0.047 TIME LEFT:  2.00D  GRAD.:     0.077 HEAT:  7.544662
 CYCLE:    27 TIME:   0.039 TIME LEFT:  2.00D  GRAD.:     0.088 HEAT:  7.544655
 CYCLE:    28 TIME:   0.047 TIME LEFT:  2.00D  GRAD.:     0.075 HEAT:  7.544644
 CYCLE:    29 TIME:   0.055 TIME LEFT:  2.00D  GRAD.:     0.059 HEAT:  7.544635
 CYCLE:    30 TIME:   0.039 TIME LEFT:  2.00D  GRAD.:     0.048 HEAT:  7.544631

     GRADIENT =  0.04822 IS LESS THAN CUTOFF =  0.05000



 -------------------------------------------------------------------------------
 PRECISE LARGE CHARGE=0 SINGLET  PM7
 p-nitrotoluen



     GEOMETRY OPTIMISED USING EIGENVECTOR FOLLOWING (EF).     
     SCF FIELD WAS ACHIEVED                                   


                              PM7 CALCULATION
                                                       MOPAC v22.1.0 Windows
                                                       Fri Mar 15 21:25:02 2024




          FINAL HEAT OF FORMATION =          7.54463 KCAL/MOL =      31.56673 KJ/MOL


          COSMO AREA              =        165.93 SQUARE ANGSTROMS
          COSMO VOLUME            =        160.53 CUBIC ANGSTROMS

          GRADIENT NORM           =          0.04822          =       0.01170 PER ATOM
          IONIZATION POTENTIAL    =         10.360016 EV
          HOMO LUMO ENERGIES (EV) =        -10.360 -1.184
          NO. OF FILLED LEVELS    =         26
          MOLECULAR WEIGHT        =        137.1378         POINT GROUP:  Cs  

          MOLECULAR DIMENSIONS (Angstroms)

            Atom       Atom       Distance
            O    16    H    14     7.01944
            H    10    H     8     4.84246
            H    13    H    12     1.56278


          SCF CALCULATIONS        =         35
 
          WALL-CLOCK TIME         =      1.563 SECONDS
          COMPUTATION TIME        =      4.859 SECONDS




   ATOM   CHEMICAL          X               Y               Z
  NUMBER   SYMBOL      (ANGSTROMS)     (ANGSTROMS)     (ANGSTROMS)
 
     1       C          1.14233564  *  -0.07448913  *   0.07220216  *
     2       C          0.91535463  *  -1.44517342  *   0.06750679  *
     3       C         -0.39926335  *  -1.91661415  *  -0.00207869  *
     4       C         -1.48318823  *  -1.03556803  *  -0.06672400  *
     5       C         -1.24289677  *   0.33287768  *  -0.06116993  *
     6       C          0.06752003  *   0.82005514  *   0.00879592  *
     7       C          0.31877958  *   2.28668210  *  -0.00094893  *
     8       H          2.16199799  *   0.30455468  *   0.12502548  *
     9       N         -0.64332583  *  -3.34810915  *  -0.00755444  *
    10       H         -2.50586718  *  -1.42356450  *  -0.12073171  *
    11       H         -2.07901273  *   1.02891495  *  -0.11209220  *
    12       H          0.44789532  *   2.65439715  *  -1.03252573  *
    13       H          1.22793700  *   2.56386144  *   0.55213205  *
    14       H         -0.50840731  *   2.86102861  *   0.44073049  *
    15       H          1.75151960  *  -2.15061846  *   0.11754712  *
    16       O          0.31818706  *  -4.09857046  *   0.04926114  *
    17       O         -1.79907537  *  -3.73715773  *  -0.06916613  *

                             CARTESIAN COORDINATES

   1    C        1.142335638    -0.074489134     0.072202156
   2    C        0.915354630    -1.445173417     0.067506790
   3    C       -0.399263348    -1.916614153    -0.002078691
   4    C       -1.483188232    -1.035568033    -0.066724002
   5    C       -1.242896767     0.332877684    -0.061169932
   6    C        0.067520033     0.820055143     0.008795919
   7    C        0.318779578     2.286682101    -0.000948933
   8    H        2.161997994     0.304554681     0.125025484
   9    N       -0.643325825    -3.348109147    -0.007554444
  10    H       -2.505867183    -1.423564500    -0.120731714
  11    H       -2.079012732     1.028914949    -0.112092201
  12    H        0.447895319     2.654397152    -1.032525725
  13    H        1.227937005     2.563861440     0.552132054
  14    H       -0.508407306     2.861028606     0.440730495
  15    H        1.751519598    -2.150618464     0.117547123
  16    O        0.318187055    -4.098570455     0.049261139
  17    O       -1.799075374    -3.737157729    -0.069166129


           Empirical Formula: C7 H7 N O2  =    17 atoms



      MOLECULAR POINT GROUP   :   Cs  


                  EIGENVALUES  
 -37.08509 -31.47355 -30.46538 -28.30429 -26.69174 -26.04523 -23.12209 -21.95420
 -20.84302 -19.09497 -17.81795 -17.15472 -16.41071 -16.19307 -15.50109 -15.34638
 -15.10812 -13.89491 -13.54535 -13.28234 -12.59170 -11.21036 -11.15223 -10.98995
 -10.66773 -10.36002  -1.18385  -0.51622   0.54426   0.86664   1.82446   3.22322
   3.32963   3.92820   3.99831   4.17182   4.37606   4.47314   4.91381   4.97642
   5.00720   5.15991   5.21122   5.48594   5.55834   5.59177   6.14043


              NET ATOMIC CHARGES AND DIPOLE CONTRIBUTIONS

  ATOM NO.   TYPE          CHARGE      No. of ELECS.   s-Pop       p-Pop       
    1          C          -0.214210        4.2142     1.08233     3.13188
    2          C          -0.062818        4.0628     1.09221     2.97060
    3          C          -0.110622        4.1106     1.07338     3.03724
    4          C          -0.062791        4.0628     1.09222     2.97057
    5          C          -0.214145        4.2141     1.08234     3.13181
    6          C           0.111364        3.8886     1.07574     2.81290
    7          C          -0.469108        4.4691     1.05073     3.41838
    8          H           0.165824        0.8342     0.83418
    9          N           0.628766        4.3712     1.45000     2.92123
   10          H           0.184353        0.8156     0.81565
   11          H           0.165812        0.8342     0.83419
   12          H           0.171545        0.8285     0.82846
   13          H           0.164330        0.8357     0.83567
   14          H           0.164191        0.8358     0.83581
   15          H           0.184356        0.8156     0.81564
   16          O          -0.403430        6.4034     1.94167     4.46176
   17          O          -0.403417        6.4034     1.94167     4.46175
 DIPOLE           X         Y         Z       TOTAL
 POINT-CHG.     1.066     6.223    -0.048     6.314
 HYBRID        -0.056    -0.331    -0.011     0.335
 SUM            1.011     5.893    -0.059     5.979


          ATOMIC ORBITAL ELECTRON POPULATIONS

     Atom    s        px        py        pz   
    1  C   1.08233   1.08054   0.99484   1.05650
    2  C   1.09221   1.02712   1.02642   0.91706
    3  C   1.07338   1.00837   0.87053   1.15834
    4  C   1.09222   1.06797   0.98550   0.91710
    5  C   1.08234   1.04893   1.02665   1.05622
    6  C   1.07574   0.97026   0.96232   0.88031
    7  C   1.05073   1.19240   1.03838   1.18760
    8  H   0.83418
    9  N   1.45000   0.97219   1.00909   0.93994
   10  H   0.81565
   11  H   0.83419
   12  H   0.82846
   13  H   0.83567
   14  H   0.83581
   15  H   0.81564
   16  O   1.94167   1.32525   1.58642   1.55009
   17  O   1.94167   1.07168   1.84035   1.54972
 *******************************************************************************
 **                                                                           **
 **                              MOPAC v22.1.0                                **
 **                                                                           **
 *******************************************************************************
 **          Digital Object Identifier (DOI): 10.5281/zenodo.6511958          **
 **    Visit the DOI location for information on how to cite this program.    **
 *******************************************************************************

                              PM7 CALCULATION RESULTS

 *******************************************************************************
 *  CALCULATION DONE:                                Fri Mar 15 21:25:02 2024  *
 *  PM7        - The PM7 Hamiltonian to be used
 *  SINGLET    - SPIN STATE DEFINED AS A SINGLET
 *
 *
 *
 *                 CHARGE ON SYSTEM = 0
 *
 *
 *
 *  OLDGEO     - PREVIOUS GEOMETRY TO BE USED
 *  PRECISE    - TIGHTER CRITERIA TO BE USED
 *  T=         - A TIME OF 172800.0 SECONDS REQUESTED
 *  DUMP=N     - RESTART FILE WRITTEN EVERY 7200.0 SECONDS REQUESTED
 *  THERMO     - THERMODYNAMIC QUANTITIES TO BE CALCULATED
 *******************************************************************************
OLDGEO CHARGE=0 SINGLET PRECISE PM7 THERMO
 p-nitrotoluen

   ATOM   CHEMICAL          X               Y               Z
  NUMBER   SYMBOL      (ANGSTROMS)     (ANGSTROMS)     (ANGSTROMS)
 
     1       C          1.14233564  *  -0.07448913  *   0.07220216  *
     2       C          0.91535463  *  -1.44517342  *   0.06750679  *
     3       C         -0.39926335  *  -1.91661415  *  -0.00207869  *
     4       C         -1.48318823  *  -1.03556803  *  -0.06672400  *
     5       C         -1.24289677  *   0.33287768  *  -0.06116993  *
     6       C          0.06752003  *   0.82005514  *   0.00879592  *
     7       C          0.31877958  *   2.28668210  *  -0.00094893  *
     8       H          2.16199799  *   0.30455468  *   0.12502548  *
     9       N         -0.64332583  *  -3.34810915  *  -0.00755444  *
    10       H         -2.50586718  *  -1.42356450  *  -0.12073171  *
    11       H         -2.07901273  *   1.02891495  *  -0.11209220  *
    12       H          0.44789532  *   2.65439715  *  -1.03252573  *
    13       H          1.22793700  *   2.56386144  *   0.55213205  *
    14       H         -0.50840731  *   2.86102861  *   0.44073049  *
    15       H          1.75151960  *  -2.15061846  *   0.11754712  *
    16       O          0.31818706  *  -4.09857046  *   0.04926114  *
    17       O         -1.79907537  *  -3.73715773  *  -0.06916613  *
 


          CARTESIAN COORDINATES 

    NO.       ATOM           X           Y           Z

     1         C          1.1423     -0.0745      0.0722
     2         C          0.9154     -1.4452      0.0675
     3         C         -0.3993     -1.9166     -0.0021
     4         C         -1.4832     -1.0356     -0.0667
     5         C         -1.2429      0.3329     -0.0612
     6         C          0.0675      0.8201      0.0088
     7         C          0.3188      2.2867     -0.0009
     8         H          2.1620      0.3046      0.1250
     9         N         -0.6433     -3.3481     -0.0076
    10         H         -2.5059     -1.4236     -0.1207
    11         H         -2.0790      1.0289     -0.1121
    12         H          0.4479      2.6544     -1.0325
    13         H          1.2279      2.5639      0.5521
    14         H         -0.5084      2.8610      0.4407
    15         H          1.7515     -2.1506      0.1175
    16         O          0.3182     -4.0986      0.0493
    17         O         -1.7991     -3.7372     -0.0692

 General Reference for PM7:
 "Optimization of Parameters for Semiempirical Methods VI: More Modifications to the 
 NDDO Approximations and Re-optimization of Parameters", J. J. P. Stewart, J. Mol. Mod., 1:32, 19 (2013)
 https://link.springer.com/article/10.1007/s00894-012-1667-x

           Empirical Formula: C7 H7 N O2  =    17 atoms



      MOLECULAR POINT GROUP   :   Cs  


 SINGLET STATE CALCULATION


      RHF CALCULATION, NO. OF DOUBLY OCCUPIED LEVELS = 26



          HEAT OF FORMATION =       7.544631 KCALS/MOLE


          CARTESIAN COORDINATE DERIVATIVES

   NUMBER  ATOM         X            Y            Z

     1       C     -0.000218     0.008608     0.003246
     2       C      0.000047     0.009988    -0.006782
     3       C      0.000371    -0.008816    -0.000957
     4       C      0.003283     0.013572     0.004671
     5       C     -0.000460     0.008928    -0.008156
     6       C      0.001088    -0.012150     0.001053
     7       C     -0.001946    -0.000131     0.002638
     8       H      0.005641    -0.000193    -0.000914
     9       N      0.003876    -0.001688    -0.010048
    10       H      0.007384     0.006356    -0.004904
    11       H     -0.005957    -0.014596    -0.000870
    12       H      0.000723    -0.000269    -0.001234
    13       H     -0.009783     0.009823     0.003376
    14       H      0.000085    -0.009118     0.003108
    15       H      0.001897    -0.002958    -0.004608
    16       O     -0.003613    -0.005938     0.010273
    17       O     -0.002414    -0.001421     0.010105
 


          GRADIENT NORM =   0.04415


          TIME FOR SCF CALCULATION =    0.02

          TIME FOR DERIVATIVES     =    0.04

          MOLECULAR WEIGHT =  137.14



          ROTATIONAL CONSTANTS IN CM(-1)

          A =    0.12978335   B =    0.02737882   C =    0.02270545



           PRINCIPAL MOMENTS OF INERTIA IN UNITS OF 10**(-40)*GRAM-CM**2

          A =      215.6883   B =     1022.4237   C =     1232.8651


          ORIENTATION OF MOLECULE IN FORCE CALCULATION

    NO.       ATOM         X         Y         Z

     1          C      -1.4476   -1.2187   -0.0020
     2          C      -0.0582   -1.2187   -0.0020
     3          C       0.6219    0.0031   -0.0020
     4          C      -0.0700    1.2182   -0.0019
     5          C      -1.4594    1.2047   -0.0020
     6          C      -2.1543   -0.0104   -0.0027
     7          C      -3.6422   -0.0178    0.0125
     8          H      -1.9883   -2.1641   -0.0009
     9          N       2.0740    0.0100   -0.0018
    10          H       0.4800    2.1652   -0.0019
    11          H      -2.0093    2.1448   -0.0010
    12          H      -4.0226   -0.0282    1.0475
    13          H      -4.0661   -0.8986   -0.4914
    14          H      -4.0752    0.8664   -0.4772
    15          H       0.5009   -2.1603   -0.0020
    16          O       2.6571   -1.0628   -0.0015
    17          O       2.6469    1.0884   -0.0015


    FIRST DERIVATIVES WILL BE USED IN THE CALCULATION OF SECOND DERIVATIVES

          ESTIMATED TIME TO COMPLETE CALCULATION =       12.75 SECONDS

    FOR POINT-GROUP Cs   THERE ARE   2 UNIQUE SYMMETRY FUNCTIONS.

 STEP:   1 TIME =     0.22 SECS, INTEGRAL =      0.22 TIME LEFT: 172799.72
 STEP:   2 TIME =     0.22 SECS, INTEGRAL =      0.44 TIME LEFT: 172799.50
 STEP:   3 TIME =     0.38 SECS, INTEGRAL =      0.81 TIME LEFT: 172799.12
 STEP:   4 TIME =     0.21 SECS, INTEGRAL =      1.02 TIME LEFT: 172798.91
 STEP:   5 TIME =     0.22 SECS, INTEGRAL =      1.24 TIME LEFT: 172798.70
 STEP:   6 TIME =     0.21 SECS, INTEGRAL =      1.45 TIME LEFT: 172798.48
 STEP:   7 TIME =     0.23 SECS, INTEGRAL =      1.68 TIME LEFT: 172798.26
 STEP:   8 TIME =     0.21 SECS, INTEGRAL =      1.89 TIME LEFT: 172798.05
 STEP:   9 TIME =     0.23 SECS, INTEGRAL =      2.12 TIME LEFT: 172797.82
 STEP:  10                       INTEGRAL =      2.12 TIME LEFT: 172797.82
 STEP:  11                       INTEGRAL =      2.12 TIME LEFT: 172797.82
 STEP:  12                       INTEGRAL =      2.12 TIME LEFT: 172797.82
 STEP:  13                       INTEGRAL =      2.12 TIME LEFT: 172797.82
 STEP:  14                       INTEGRAL =      2.12 TIME LEFT: 172797.82
 STEP:  15                       INTEGRAL =      2.12 TIME LEFT: 172797.82
 STEP:  16 TIME =     0.23 SECS, INTEGRAL =      2.34 TIME LEFT: 172797.59
 STEP:  17 TIME =     0.21 SECS, INTEGRAL =      2.55 TIME LEFT: 172797.38
 STEP:  18 TIME =     0.27 SECS, INTEGRAL =      2.82 TIME LEFT: 172797.12
 STEP:  19 TIME =     0.21 SECS, INTEGRAL =      3.03 TIME LEFT: 172796.91
 STEP:  20 TIME =     0.20 SECS, INTEGRAL =      3.23 TIME LEFT: 172796.70
 STEP:  21 TIME =     0.21 SECS, INTEGRAL =      3.45 TIME LEFT: 172796.49
 STEP:  22 TIME =     0.27 SECS, INTEGRAL =      3.72 TIME LEFT: 172796.22
 STEP:  23 TIME =     0.20 SECS, INTEGRAL =      3.92 TIME LEFT: 172796.02
 STEP:  24 TIME =     0.22 SECS, INTEGRAL =      4.14 TIME LEFT: 172795.80
 STEP:  25 TIME =     0.22 SECS, INTEGRAL =      4.36 TIME LEFT: 172795.58
 STEP:  26 TIME =     0.22 SECS, INTEGRAL =      4.58 TIME LEFT: 172795.36
 STEP:  27 TIME =     0.23 SECS, INTEGRAL =      4.81 TIME LEFT: 172795.12
 STEP:  28 TIME =     0.22 SECS, INTEGRAL =      5.03 TIME LEFT: 172794.91
 STEP:  29 TIME =     0.21 SECS, INTEGRAL =      5.24 TIME LEFT: 172794.70
 STEP:  30 TIME =     0.21 SECS, INTEGRAL =      5.45 TIME LEFT: 172794.48
 STEP:  31                       INTEGRAL =      5.45 TIME LEFT: 172794.48
 STEP:  32                       INTEGRAL =      5.45 TIME LEFT: 172794.48
 STEP:  33                       INTEGRAL =      5.45 TIME LEFT: 172794.48
 STEP:  34 TIME =     0.22 SECS, INTEGRAL =      5.67 TIME LEFT: 172794.27
 STEP:  35 TIME =     0.26 SECS, INTEGRAL =      5.93 TIME LEFT: 172794.01
 STEP:  36 TIME =     0.20 SECS, INTEGRAL =      6.13 TIME LEFT: 172793.80
 STEP:  37 TIME =     0.22 SECS, INTEGRAL =      6.35 TIME LEFT: 172793.59
 STEP:  38 TIME =     0.20 SECS, INTEGRAL =      6.55 TIME LEFT: 172793.38
 STEP:  39 TIME =     0.22 SECS, INTEGRAL =      6.77 TIME LEFT: 172793.16
 STEP:  40                       INTEGRAL =      6.77 TIME LEFT: 172793.16
 STEP:  41                       INTEGRAL =      6.77 TIME LEFT: 172793.16
 STEP:  42                       INTEGRAL =      6.77 TIME LEFT: 172793.16
 STEP:  43                       INTEGRAL =      6.77 TIME LEFT: 172793.16
 STEP:  44                       INTEGRAL =      6.77 TIME LEFT: 172793.16
 STEP:  45                       INTEGRAL =      6.77 TIME LEFT: 172793.16
 STEP:  46 TIME =     0.22 SECS, INTEGRAL =      6.99 TIME LEFT: 172792.95
 STEP:  47 TIME =     0.23 SECS, INTEGRAL =      7.22 TIME LEFT: 172792.72
 STEP:  48 TIME =     0.27 SECS, INTEGRAL =      7.48 TIME LEFT: 172792.45
 STEP:  49                       INTEGRAL =      7.48 TIME LEFT: 172792.45
 STEP:  50                       INTEGRAL =      7.48 TIME LEFT: 172792.45
 STEP:  51                       INTEGRAL =      7.48 TIME LEFT: 172792.45

(To convert to Hartree/Bohr^2, multiply by (10^(-21) x N x a0^2)/(4.184 x 627.51) =  0.0642)


           FORCE MATRIX IN MILLIDYNES/ANGSTROM


                  C  1       C  2       C  3       C  4       C  5       C  6
 ------------------------------------------------------------------------------
     C    1  15.106567
     C    2   6.251076  15.242815
     C    3   2.253899   5.705265  16.278121
     C    4   1.569579   2.152840   5.700421  15.242815
     C    5   2.225413   1.583560   2.275228   6.251076  15.106567
     C    6   5.736172   2.311142   1.606991   2.311203   5.736197  16.181070
     C    7   0.816487   0.097678   0.053685   0.097686   0.816506   3.913733
     H    8   3.467729   0.761250   0.094566   0.015512   0.085215   0.747230
     N    9   0.198328   1.119638   3.405704   1.119580   0.198354   0.103293
     H   10   0.023603   0.084456   0.741396   3.418935   0.715782   0.102323
     H   11   0.085101   0.015560   0.095203   0.761233   3.467532   0.747628
     H   12   0.024240   0.013592   0.009309   0.013576   0.024228   0.748288
     H   13   0.028707   0.007954   0.011201   0.012876   0.037016   0.728615
     H   14   0.037011   0.013012   0.011931   0.007983   0.028785   0.727809
     H   15   0.715850   3.418740   0.741492   0.084296   0.023297   0.102708
     O   16   0.035772   0.086325   1.410262   0.112081   0.066380   0.040315
     O   17   0.066809   0.112463   1.408783   0.086157   0.036342   0.040760


                  C  7       H  8       N  9       H 10       H 11       H 12
 ------------------------------------------------------------------------------
     C    7  11.635235
     H    8   0.043192   4.379490
     N    9   0.068567   0.018714  20.557636
     H   10   0.014513   0.011388   0.128885   4.294529
     H   11   0.043440   0.008693   0.018731   0.035703   4.379490
     H   12   3.352279   0.009590   0.011887   0.002724   0.009532   4.162901
     H   13   3.403668   0.021774   0.012659   0.002058   0.003774   0.457725
     H   14   3.404397   0.003719   0.012878   0.002377   0.021783   0.457196
     H   15   0.014649   0.035642   0.128965   0.008014   0.011388   0.002735
     O   16   0.019174   0.008938  10.074683   0.030843   0.006219   0.003638
     O   17   0.019121   0.006251  10.075204   0.066909   0.008999   0.003645


                  H 13       H 14       H 15       O 16       O 17
 ------------------------------------------------------------------
     H   13   4.202474
     H   14   0.455282   4.202474
     H   15   0.002447   0.002058   4.294529
     O   16   0.003935   0.003503   0.066927  12.597244
     O   17   0.003503   0.003959   0.030784   2.211718  12.597244


          HEAT OF FORMATION =       7.544631 KCALS/MOLE

          ZERO POINT ENERGY      78.019 KCAL/MOL

         NOTE: SYSTEM IS NOT A GROUND STATE, THEREFORE ZERO POINT
         ENERGY IS NOT MEANINGFULL. ZERO POINT ENERGY PRINTED
         DOES NOT INCLUDE THE  1 IMAGINARY FREQUENCIES


           NORMAL COORDINATE ANALYSIS (Total motion = 1 Angstrom)


   Root No.       1         2         3         4         5         6         7         8

                 1 A"      2 A"      1 A'      3 A"      2 A'      4 A"      5 A"      3 A'  

                -132.1      44.3      85.7     202.8     261.1     353.6     357.9     368.1
  
           1    0.0010    0.0001   -0.0002    0.0247   -0.0003   -0.0051    0.0148   -0.0353
           2   -0.0014   -0.0003    0.0001    0.0147   -0.0000    0.0137   -0.0403    0.0249
           3   -0.0085   -0.0659   -0.0374    0.0002   -0.0494    0.0536    0.0186   -0.0002
           4    0.0014    0.0002   -0.0001    0.0199   -0.0002   -0.0064    0.0186   -0.0258
           5    0.0005   -0.0001    0.0001    0.0483    0.0001   -0.0006    0.0010    0.0283
           6   -0.0086   -0.0634   -0.0538   -0.0001    0.0385   -0.0541   -0.0179    0.0000
           7   -0.0000    0.0000    0.0001   -0.0003   -0.0001    0.0000   -0.0001    0.0314
           8    0.0008   -0.0001   -0.0000    0.0618   -0.0000   -0.0051    0.0145    0.0002
           9    0.0000    0.0000   -0.0399   -0.0000    0.0712   -0.0000    0.0000    0.0008
          10   -0.0014   -0.0002   -0.0001   -0.0203   -0.0002    0.0065   -0.0186   -0.0255
          11    0.0005   -0.0001   -0.0001    0.0481   -0.0001   -0.0005    0.0009   -0.0286
          12    0.0086    0.0634   -0.0538    0.0001    0.0385    0.0541    0.0179    0.0000
          13   -0.0010   -0.0000   -0.0002   -0.0249   -0.0002    0.0050   -0.0145   -0.0350
          14   -0.0014   -0.0003   -0.0001    0.0145    0.0000    0.0137   -0.0404   -0.0252
          15    0.0085    0.0659   -0.0374   -0.0002   -0.0494   -0.0536   -0.0187   -0.0002
          16    0.0000    0.0000   -0.0006   -0.0000   -0.0003   -0.0001    0.0002   -0.0797
          17   -0.0030   -0.0005   -0.0000    0.0003    0.0000    0.0171   -0.0497   -0.0004
          18    0.0000   -0.0000   -0.0050    0.0000   -0.0540    0.0000   -0.0000    0.0011
          19   -0.0000   -0.0000    0.0002    0.0003    0.0007    0.0001   -0.0003   -0.0902
          20    0.0019    0.0006    0.0000   -0.0710    0.0000   -0.0213    0.0633   -0.0004
          21   -0.0000   -0.0000    0.0866    0.0000    0.0348    0.0000   -0.0000   -0.0002
          22    0.0035    0.0004    0.0001    0.0460   -0.0001   -0.0130    0.0368   -0.0121
          23   -0.0028   -0.0006   -0.0000    0.0023   -0.0001    0.0178   -0.0513    0.0101
          24   -0.0152   -0.1177   -0.0388    0.0007   -0.0951    0.1432    0.0485   -0.0016
          25   -0.0000   -0.0000    0.0002   -0.0000   -0.0000    0.0000   -0.0001    0.0562
          26    0.0004    0.0001   -0.0000    0.0036   -0.0000   -0.0065    0.0193    0.0003
          27   -0.0000    0.0000    0.0139   -0.0000    0.0220   -0.0000    0.0000    0.0002
          28   -0.0020   -0.0002   -0.0002   -0.0389   -0.0002    0.0141   -0.0410   -0.0504
          29    0.0008   -0.0001   -0.0001    0.0570   -0.0000   -0.0046    0.0128   -0.0132
          30    0.0154    0.1096   -0.0662    0.0004    0.0680    0.1468    0.0491   -0.0006
          31   -0.0034   -0.0004    0.0001   -0.0460   -0.0001    0.0128   -0.0363   -0.0120
          32   -0.0029   -0.0006    0.0000    0.0018    0.0001    0.0179   -0.0516   -0.0102
          33    0.0152    0.1177   -0.0388   -0.0007   -0.0951   -0.1432   -0.0485   -0.0016
          34   -0.0015   -0.0000    0.0693    0.0004    0.0801    0.0002   -0.0004   -0.0938
          35    0.2996    0.0027    0.0003   -0.0922    0.0004   -0.0309    0.0900   -0.0005
          36   -0.0000   -0.0000    0.1127    0.0000    0.0658    0.0000   -0.0000   -0.0021
          37   -0.0123   -0.0025   -0.0336    0.0449   -0.0374    0.0279   -0.0781   -0.0884
          38   -0.1358    0.0014   -0.0013   -0.0934   -0.0013   -0.0378    0.1097   -0.0013
          39    0.2564    0.0010    0.1177    0.0008    0.0710    0.0040   -0.0121    0.0004
          40    0.0136    0.0025   -0.0336   -0.0440   -0.0374   -0.0275    0.0771   -0.0884
          41   -0.1357    0.0014    0.0009   -0.0939    0.0010   -0.0380    0.1104    0.0004
          42   -0.2564   -0.0010    0.1177   -0.0008    0.0710   -0.0039    0.0121    0.0004
          43    0.0020    0.0002   -0.0002    0.0383   -0.0003   -0.0141    0.0409   -0.0505
          44    0.0008   -0.0001    0.0001    0.0574    0.0000   -0.0047    0.0132    0.0127
          45   -0.0154   -0.1096   -0.0662   -0.0004    0.0680   -0.1468   -0.0491   -0.0006
          46   -0.0008    0.0001    0.0002   -0.0757    0.0001    0.0098   -0.0288    0.0854
          47   -0.0001    0.0002    0.0000   -0.0406    0.0000   -0.0009    0.0031    0.0137
          48   -0.0079    0.1383    0.0424    0.0005   -0.0258    0.0010    0.0002   -0.0004
          49    0.0008   -0.0001    0.0002    0.0761    0.0001   -0.0098    0.0288    0.0855
          50   -0.0001    0.0002   -0.0000   -0.0399   -0.0000   -0.0010    0.0034   -0.0129
          51    0.0079   -0.1383    0.0424   -0.0005   -0.0258   -0.0010   -0.0002   -0.0004


   Root No.       9        10        11        12        13        14        15        16

                 4 A'      6 A"      5 A'      7 A"      6 A'      7 A'      8 A'      9 A'  

                 469.4     535.1     616.2     617.6     627.2     729.9     795.6     887.8
  
           1    0.0008    0.0329    0.0061    0.0851   -0.0370    0.0005   -0.0449   -0.0008
           2    0.0001    0.0003    0.0063    0.0679   -0.0439   -0.0005   -0.0207   -0.0015
           3   -0.0108    0.0005   -0.0328   -0.0000   -0.0089   -0.0188    0.0002   -0.0296
           4    0.0008    0.0299    0.0067    0.0858   -0.0417    0.0004   -0.0459   -0.0006
           5   -0.0002    0.0576    0.0028   -0.0718   -0.0223   -0.0011    0.0421   -0.0004
           6   -0.0352   -0.0001    0.0295    0.0000    0.0077    0.0009    0.0005   -0.0183
           7    0.0001   -0.0003    0.0081    0.0002   -0.0579   -0.0015    0.0392   -0.0003
           8    0.0000    0.0564    0.0000   -0.0343   -0.0003   -0.0000    0.0002   -0.0000
           9    0.0706    0.0000   -0.0243   -0.0000   -0.0053   -0.0969   -0.0028    0.0377
          10    0.0008   -0.0304    0.0068   -0.0851   -0.0419    0.0004   -0.0455   -0.0006
          11    0.0002    0.0573   -0.0028   -0.0726    0.0219    0.0012   -0.0426    0.0004
          12   -0.0352    0.0001    0.0295   -0.0000    0.0077    0.0009    0.0005   -0.0183
          13    0.0008   -0.0329    0.0061   -0.0858   -0.0374    0.0004   -0.0451   -0.0008
          14   -0.0001   -0.0000   -0.0062    0.0671    0.0435    0.0005    0.0203    0.0015
          15   -0.0108   -0.0005   -0.0328    0.0000   -0.0089   -0.0188    0.0002   -0.0296
          16    0.0005    0.0001   -0.0059   -0.0002    0.0437    0.0008    0.0198    0.0016
          17   -0.0000   -0.0242   -0.0000    0.0324    0.0002    0.0000    0.0001    0.0000
          18    0.0711   -0.0000    0.0681    0.0000    0.0211    0.0363    0.0034    0.0135
          19   -0.0008   -0.0001   -0.0110   -0.0001    0.0689   -0.0006    0.0663    0.0003
          20   -0.0000    0.0139   -0.0001    0.0201    0.0003   -0.0000    0.0003   -0.0000
          21   -0.0054   -0.0000    0.0057    0.0000    0.0004    0.0082   -0.0018    0.0169
          22    0.0013    0.0754    0.0121    0.0546   -0.0729    0.0000   -0.0478   -0.0023
          23   -0.0004   -0.0231    0.0022    0.0777   -0.0203   -0.0003   -0.0152   -0.0004
          24   -0.0890    0.0004   -0.1691    0.0001   -0.0508    0.0146   -0.0091    0.1801
          25   -0.0003    0.0003    0.0044   -0.0000   -0.0340   -0.0017    0.0802    0.0017
          26    0.0000   -0.0691    0.0000    0.0000   -0.0002   -0.0000    0.0004    0.0000
          27    0.0461    0.0000   -0.0530   -0.0000   -0.0155    0.1270    0.0022   -0.0212
          28    0.0009   -0.0640    0.0035   -0.0574   -0.0169    0.0013   -0.0698   -0.0001
          29    0.0001    0.0733   -0.0008   -0.0809    0.0069    0.0005   -0.0253    0.0001
          30   -0.1481    0.0005    0.0744   -0.0002    0.0158    0.2136    0.0012    0.1103
          31    0.0013   -0.0751    0.0121   -0.0553   -0.0731    0.0000   -0.0479   -0.0023
          32    0.0004   -0.0238   -0.0021    0.0772    0.0196    0.0003    0.0148    0.0004
          33   -0.0890   -0.0004   -0.1691   -0.0001   -0.0509    0.0146   -0.0091    0.1801
          34   -0.0825   -0.0001   -0.0955   -0.0001    0.0487   -0.0743    0.0731   -0.1000
          35   -0.0004    0.0266   -0.0005    0.0231    0.0002   -0.0004    0.0004   -0.0005
          36   -0.0382   -0.0000   -0.0293   -0.0000   -0.0063   -0.0241    0.0041   -0.0295
          37    0.0375   -0.0327    0.0282    0.0004    0.0764    0.0335    0.0626    0.0467
          38    0.0012    0.0340    0.0008    0.0234    0.0020    0.0017    0.0003    0.0035
          39   -0.0424   -0.0048   -0.0322   -0.0028   -0.0119   -0.0283   -0.0029   -0.0374
          40    0.0375    0.0323    0.0282   -0.0007    0.0764    0.0335    0.0626    0.0467
          41   -0.0008    0.0343   -0.0005    0.0233   -0.0012   -0.0014    0.0003   -0.0030
          42   -0.0424    0.0048   -0.0322    0.0028   -0.0119   -0.0283   -0.0029   -0.0374
          43    0.0009    0.0633    0.0035    0.0582   -0.0169    0.0013   -0.0701   -0.0001
          44   -0.0001    0.0739    0.0009   -0.0803   -0.0071   -0.0005    0.0246   -0.0001
          45   -0.1481   -0.0005    0.0744    0.0002    0.0158    0.2136    0.0012    0.1103
          46   -0.0009    0.0754   -0.0080   -0.0038    0.0528    0.0007   -0.0126    0.0001
          47   -0.0003   -0.0361   -0.0065   -0.0054    0.0463    0.0014   -0.0595   -0.0012
          48   -0.0180    0.0000    0.0161   -0.0000    0.0047   -0.0344   -0.0005    0.0047
          49   -0.0009   -0.0750   -0.0081    0.0039    0.0532    0.0008   -0.0132    0.0001
          50    0.0003   -0.0368    0.0065   -0.0053   -0.0458   -0.0014    0.0594    0.0012
          51   -0.0180   -0.0000    0.0161    0.0000    0.0047   -0.0344   -0.0005    0.0047


   Root No.      17        18        19        20        21        22        23        24

                 8 A"     10 A'     11 A'      9 A"     10 A"     12 A'     13 A'     11 A"  

                 897.1     959.0    1012.1    1019.1    1031.3    1076.5    1080.2    1192.2
  
           1    0.0001   -0.0074    0.0001   -0.0001    0.0065    0.0010   -0.0005   -0.0133
           2   -0.0001   -0.0609   -0.0004    0.0002   -0.0239    0.0416   -0.0349    0.0215
           3   -0.0333    0.0010    0.0247    0.0445   -0.0006   -0.0187   -0.0201   -0.0003
           4    0.0000    0.0158    0.0007   -0.0001    0.0018   -0.0007    0.0018    0.0129
           5    0.0000   -0.0757   -0.0022    0.0000   -0.0070   -0.0318    0.0240    0.0211
           6   -0.0308    0.0022   -0.0410   -0.0468   -0.0005    0.0088    0.0091    0.0000
           7   -0.0000   -0.0375   -0.0008    0.0000   -0.0001   -0.0198    0.0166    0.0002
           8    0.0001   -0.0002   -0.0000   -0.0002    0.0118   -0.0001    0.0001   -0.0353
           9    0.0000   -0.0023    0.0283    0.0000   -0.0000   -0.0040   -0.0040   -0.0000
          10   -0.0000    0.0151    0.0007    0.0001   -0.0017   -0.0011    0.0021   -0.0131
          11    0.0000    0.0758    0.0022    0.0000   -0.0071    0.0318   -0.0240    0.0209
          12    0.0308    0.0022   -0.0410    0.0468    0.0005    0.0088    0.0091   -0.0000
          13   -0.0001   -0.0080    0.0001    0.0001   -0.0063    0.0014   -0.0008    0.0131
          14   -0.0001    0.0609    0.0004    0.0002   -0.0240   -0.0416    0.0349    0.0217
          15    0.0333    0.0010    0.0247   -0.0445    0.0007   -0.0187   -0.0201    0.0003
          16    0.0000    0.0168   -0.0009   -0.0000   -0.0001   -0.0147    0.0100    0.0002
          17   -0.0001    0.0001   -0.0000    0.0000    0.0148   -0.0001    0.0001   -0.0360
          18    0.0000   -0.0038    0.0096   -0.0000    0.0000    0.0371    0.0405    0.0000
          19    0.0000   -0.0623   -0.0017   -0.0000   -0.0003    0.0228   -0.0221   -0.0001
          20   -0.0005   -0.0003   -0.0000    0.0001    0.0639    0.0001   -0.0001    0.0129
          21    0.0000    0.0022   -0.0230   -0.0000    0.0000   -0.0323   -0.0371    0.0000
          22   -0.0010   -0.0589   -0.0011    0.0012    0.0144   -0.0581    0.0455    0.1555
          23    0.0008   -0.0285    0.0002   -0.0007   -0.0251    0.0701   -0.0564   -0.0773
          24    0.2234   -0.0049   -0.0937   -0.1936   -0.0005    0.0684    0.0751    0.0017
          25    0.0000    0.0539    0.0008   -0.0000    0.0000    0.0113   -0.0092   -0.0000
          26   -0.0000    0.0003    0.0000    0.0000   -0.0007    0.0000   -0.0000    0.0007
          27   -0.0000    0.0010   -0.0092    0.0000   -0.0000    0.0009    0.0008   -0.0000
          28   -0.0002    0.0634    0.0012    0.0007   -0.0474   -0.0617    0.0539    0.1528
          29    0.0002    0.0431    0.0017   -0.0003    0.0189    0.0606   -0.0489   -0.0762
          30   -0.2077   -0.0121    0.1822   -0.2107   -0.0018   -0.0240   -0.0245    0.0000
          31    0.0010   -0.0591   -0.0010   -0.0012   -0.0141   -0.0574    0.0450   -0.1548
          32    0.0008    0.0279   -0.0002   -0.0007   -0.0252   -0.0707    0.0569   -0.0788
          33   -0.2234   -0.0049   -0.0937    0.1936    0.0005    0.0684    0.0751   -0.0017
          34   -0.0000   -0.0656    0.1087    0.0000    0.0004    0.1694    0.1434    0.0002
          35    0.0040   -0.0003    0.0005   -0.0033   -0.0833    0.0008    0.0007   -0.0344
          36    0.0000   -0.0061    0.0294   -0.0000    0.0000    0.0412    0.0405    0.0000
          37   -0.0007   -0.0577   -0.0520   -0.0016    0.2817   -0.0439   -0.0953    0.0379
          38    0.0010    0.0038   -0.0045   -0.0001   -0.1008   -0.0063   -0.0082   -0.0182
          39   -0.0018    0.0013    0.0390    0.0018    0.0038    0.0460    0.0619    0.0089
          40    0.0007   -0.0577   -0.0520    0.0016   -0.2807   -0.0440   -0.0954   -0.0377
          41    0.0010   -0.0044    0.0041   -0.0001   -0.1036    0.0059    0.0073   -0.0186
          42    0.0018    0.0013    0.0390   -0.0018   -0.0037    0.0460    0.0619   -0.0089
          43    0.0002    0.0638    0.0012   -0.0007    0.0472   -0.0611    0.0534   -0.1521
          44    0.0002   -0.0425   -0.0017   -0.0003    0.0194   -0.0612    0.0494   -0.0777
          45    0.2077   -0.0121    0.1822    0.2107    0.0018   -0.0240   -0.0245   -0.0000
          46    0.0000    0.0073    0.0002   -0.0000    0.0012    0.0041   -0.0034   -0.0024
          47   -0.0000   -0.0411   -0.0007    0.0000   -0.0009   -0.0104    0.0081    0.0016
          48   -0.0002   -0.0002    0.0017   -0.0001   -0.0001   -0.0002   -0.0002   -0.0000
          49   -0.0000    0.0069    0.0002    0.0000   -0.0012    0.0040   -0.0033    0.0023
          50   -0.0000    0.0412    0.0007    0.0000   -0.0010    0.0104   -0.0082    0.0017
          51    0.0002   -0.0002    0.0017    0.0001    0.0000   -0.0002   -0.0002   -0.0000


   Root No.      25        26        27        28        29        30        31        32

                14 A'     12 A"     15 A'     16 A'     13 A"     14 A"     17 A'     18 A'  

                1252.1    1258.9    1266.0    1277.6    1339.4    1353.1    1378.0    1394.3
  
           1   -0.0020    0.0022   -0.0006   -0.0001    0.0689   -0.0082   -0.0252   -0.0206
           2   -0.0149   -0.0002   -0.0074   -0.0054   -0.0198    0.0110   -0.0142   -0.0050
           3    0.0001    0.0006    0.0002   -0.0003   -0.0001   -0.0001   -0.0000   -0.0000
           4    0.0067   -0.0021    0.0008   -0.0004   -0.0603   -0.0244    0.0177    0.0108
           5   -0.0028    0.0015   -0.0074   -0.0081   -0.0130   -0.0136   -0.0285   -0.0204
           6   -0.0000   -0.0002    0.0000    0.0000    0.0001    0.0001    0.0000   -0.0001
           7    0.0659    0.0000    0.0143   -0.0042   -0.0002    0.0001    0.0571    0.0389
           8    0.0003   -0.0009    0.0001   -0.0000    0.0438   -0.0187    0.0003    0.0002
           9   -0.0000   -0.0000    0.0000   -0.0000    0.0000    0.0000    0.0000   -0.0000
          10    0.0066    0.0021    0.0007   -0.0005    0.0604    0.0246    0.0174    0.0106
          11    0.0028    0.0016    0.0074    0.0081   -0.0124   -0.0133    0.0287    0.0205
          12   -0.0000    0.0002    0.0000    0.0000   -0.0001   -0.0001    0.0000   -0.0000
          13   -0.0021   -0.0022   -0.0006   -0.0002   -0.0687    0.0081   -0.0253   -0.0207
          14    0.0149   -0.0002    0.0074    0.0054   -0.0204    0.0111    0.0139    0.0048
          15    0.0001   -0.0006    0.0002   -0.0002    0.0001    0.0001   -0.0001    0.0000
          16    0.0357    0.0000   -0.0010   -0.0098   -0.0002   -0.0001   -0.0753   -0.0408
          17    0.0002   -0.0003   -0.0000   -0.0000    0.0383    0.0270   -0.0004   -0.0002
          18    0.0005    0.0000   -0.0025    0.0016   -0.0000   -0.0000    0.0009   -0.0010
          19   -0.0262    0.0002    0.0066   -0.0007    0.0000    0.0000    0.0772   -0.0203
          20   -0.0001   -0.0369    0.0000    0.0000   -0.0003   -0.0069    0.0004   -0.0001
          21    0.0066    0.0000   -0.0198    0.0117   -0.0000   -0.0000    0.0035   -0.0015
          22   -0.1385    0.0154    0.0601    0.1490    0.0864    0.1893   -0.0057   -0.0027
          23    0.0642   -0.0089   -0.0422   -0.0915   -0.0339   -0.1025   -0.0250   -0.0161
          24   -0.0014   -0.0042    0.0012    0.0007    0.0005    0.0010    0.0007   -0.0007
          25   -0.0112    0.0000   -0.0026    0.0005    0.0000   -0.0000   -0.0031    0.0018
          26   -0.0001   -0.0003   -0.0000   -0.0000   -0.0071    0.0016   -0.0000    0.0000
          27    0.0000   -0.0000   -0.0000    0.0000    0.0000    0.0000    0.0000    0.0000
          28   -0.1301    0.0221   -0.1049   -0.1131    0.1664   -0.1560    0.0740    0.0596
          29    0.0820   -0.0102    0.0676    0.0719   -0.0727    0.0880   -0.0040   -0.0078
          30    0.0002    0.0003   -0.0003    0.0001    0.0001    0.0001   -0.0000    0.0000
          31   -0.1379   -0.0153    0.0597    0.1481   -0.0861   -0.1883   -0.0059   -0.0028
          32   -0.0656   -0.0090    0.0428    0.0929   -0.0347   -0.1043    0.0250    0.0161
          33   -0.0014    0.0043    0.0012    0.0007   -0.0005   -0.0010    0.0007   -0.0006
          34    0.0196   -0.0019   -0.1270    0.0861    0.0001   -0.0000   -0.1006    0.1631
          35    0.0001    0.3875   -0.0006    0.0004   -0.0126    0.0097   -0.0005    0.0008
          36    0.0151    0.0000   -0.0595    0.0393   -0.0000   -0.0000   -0.0498    0.0700
          37   -0.0319    0.1252    0.0261   -0.0065   -0.0327   -0.0283   -0.1347    0.2038
          38    0.0381    0.0344   -0.1066    0.0610    0.0128    0.0117    0.0883   -0.0985
          39   -0.0492   -0.2008    0.1596   -0.0976    0.0142   -0.0005   -0.0019   -0.0193
          40   -0.0315   -0.1256    0.0250   -0.0059    0.0325    0.0282   -0.1339    0.2028
          41   -0.0384    0.0332    0.1069   -0.0611    0.0131    0.0120   -0.0897    0.1005
          42   -0.0492    0.2009    0.1596   -0.0976   -0.0142    0.0005   -0.0020   -0.0193
          43   -0.1293   -0.0220   -0.1042   -0.1124   -0.1657    0.1551    0.0740    0.0595
          44   -0.0833   -0.0104   -0.0686   -0.0730   -0.0743    0.0895    0.0048    0.0084
          45    0.0002   -0.0003   -0.0003    0.0000   -0.0001   -0.0001    0.0000   -0.0000
          46   -0.0087   -0.0002   -0.0012    0.0012    0.0002   -0.0013   -0.0077   -0.0066
          47    0.0169    0.0003    0.0027   -0.0015    0.0034    0.0005    0.0118    0.0106
          48    0.0000   -0.0001   -0.0001    0.0000    0.0000    0.0000    0.0000   -0.0000
          49   -0.0085    0.0002   -0.0012    0.0012   -0.0002    0.0013   -0.0076   -0.0064
          50   -0.0170    0.0003   -0.0027    0.0015    0.0034    0.0005   -0.0119   -0.0107
          51    0.0000    0.0001   -0.0001    0.0000   -0.0000   -0.0000   -0.0000    0.0000


   Root No.      33        34        35        36        37        38        39        40

                19 A'     15 A"     20 A'     21 A'     16 A"     17 A"     22 A'     18 A"  

                1484.6    1532.4    1568.4    1697.6    1700.5    1762.3    2662.7    2671.3
  
           1   -0.0082   -0.0514   -0.0239    0.1412   -0.0392    0.0218   -0.0001    0.0001
           2    0.0103   -0.0308    0.0440   -0.0405    0.0815   -0.0166    0.0002    0.0017
           3   -0.0000    0.0000   -0.0000    0.0000   -0.0001    0.0000   -0.0001   -0.0000
           4    0.0092    0.0537   -0.0434   -0.1325   -0.0425   -0.0137    0.0001   -0.0001
           5    0.0072   -0.0265   -0.0425   -0.0343   -0.0892    0.0207   -0.0001    0.0000
           6    0.0000    0.0000    0.0000    0.0000   -0.0000    0.0000   -0.0000   -0.0000
           7   -0.0922   -0.0004    0.0588    0.0473   -0.0008    0.0003   -0.0000   -0.0000
           8   -0.0004    0.0786    0.0003    0.0002    0.1727   -0.0540    0.0000    0.0001
           9   -0.0000    0.0000    0.0000   -0.0000   -0.0000    0.0000   -0.0000   -0.0000
          10    0.0093   -0.0535   -0.0438   -0.1329    0.0433    0.0135    0.0001    0.0001
          11   -0.0071   -0.0271    0.0420    0.0330   -0.0888    0.0208    0.0001    0.0000
          12   -0.0000   -0.0000    0.0000    0.0000    0.0000   -0.0000   -0.0000    0.0000
          13   -0.0081    0.0516   -0.0234    0.1408    0.0384   -0.0217   -0.0001   -0.0001
          14   -0.0103   -0.0303   -0.0443    0.0418    0.0818   -0.0168   -0.0002    0.0017
          15   -0.0000   -0.0000   -0.0000    0.0000    0.0001   -0.0000   -0.0001    0.0000
          16    0.0215   -0.0004    0.0786   -0.0796    0.0007   -0.0001    0.0011    0.0000
          17    0.0001    0.0852    0.0004   -0.0004   -0.1536    0.0258   -0.0000   -0.0036
          18    0.0005   -0.0000   -0.0000   -0.0002    0.0000   -0.0000   -0.0028    0.0000
          19    0.0009    0.0001   -0.0189    0.0066   -0.0001    0.0000   -0.0007    0.0003
          20    0.0000   -0.0134   -0.0001    0.0000    0.0120   -0.0014   -0.0000   -0.0520
          21   -0.0010   -0.0000   -0.0002    0.0010    0.0000   -0.0000   -0.0486    0.0000
          22    0.0249    0.0739    0.1171   -0.0298    0.0261   -0.0080   -0.0007   -0.0092
          23   -0.0043   -0.0875   -0.0442    0.0402    0.0065    0.0043   -0.0014   -0.0144
          24    0.0004    0.0005    0.0003   -0.0002   -0.0002    0.0000    0.0003    0.0002
          25    0.2685   -0.0000   -0.0004    0.0210   -0.0001   -0.0018    0.0000   -0.0000
          26    0.0013    0.0044   -0.0000    0.0001    0.0269    0.3655    0.0000    0.0000
          27    0.0001    0.0000   -0.0000    0.0000   -0.0000    0.0000    0.0000   -0.0000
          28   -0.0229    0.0755    0.1052    0.0111   -0.0151    0.0333   -0.0009   -0.0007
          29   -0.0020   -0.0876   -0.0467   -0.0302   -0.0202   -0.0116   -0.0016   -0.0008
          30    0.0001    0.0000   -0.0001   -0.0001   -0.0000    0.0000    0.0001    0.0000
          31    0.0248   -0.0730    0.1167   -0.0294   -0.0261    0.0079   -0.0007    0.0093
          32    0.0045   -0.0883    0.0454   -0.0404    0.0063    0.0043    0.0014   -0.0144
          33    0.0003   -0.0005    0.0003   -0.0002    0.0002   -0.0000    0.0003   -0.0002
          34   -0.0287   -0.0000   -0.0344    0.0210    0.0000   -0.0000   -0.1929    0.0001
          35   -0.0001    0.0094   -0.0002    0.0001   -0.0078    0.0013   -0.0010   -0.0264
          36   -0.0161   -0.0000   -0.0174    0.0212    0.0000   -0.0000    0.4544    0.0000
          37   -0.0348   -0.0437   -0.0399    0.0215    0.0459   -0.0071    0.0949    0.1870
          38    0.0147    0.0160    0.0158   -0.0123   -0.0234    0.0039    0.1855    0.3393
          39    0.0113    0.0028    0.0096   -0.0155   -0.0082    0.0015    0.0805    0.2062
          40   -0.0346    0.0435   -0.0398    0.0214   -0.0457    0.0070    0.0967   -0.1903
          41   -0.0150    0.0164   -0.0162    0.0125   -0.0239    0.0039   -0.1846    0.3375
          42    0.0113   -0.0028    0.0096   -0.0155    0.0082   -0.0015    0.0805   -0.2062
          43   -0.0229   -0.0746    0.1047    0.0108    0.0153   -0.0332   -0.0009    0.0007
          44    0.0018   -0.0883    0.0477    0.0304   -0.0201   -0.0119    0.0016   -0.0008
          45    0.0001   -0.0000   -0.0000   -0.0001    0.0000   -0.0000    0.0001   -0.0000
          46   -0.0900    0.0057   -0.0042   -0.0067    0.0129    0.0804   -0.0000    0.0000
          47    0.1552   -0.0056    0.0059    0.0106   -0.0153   -0.1514    0.0000   -0.0000
          48   -0.0000    0.0000   -0.0000   -0.0000   -0.0000    0.0000   -0.0000   -0.0000
          49   -0.0885   -0.0056   -0.0041   -0.0066   -0.0127   -0.0789   -0.0000   -0.0000
          50   -0.1561   -0.0056   -0.0060   -0.0107   -0.0154   -0.1521    0.0000   -0.0000
          51   -0.0000   -0.0000   -0.0000    0.0000   -0.0000   -0.0000    0.0000   -0.0000


   Root No.      41        42        43        44        45

                19 A"     23 A'     20 A"     24 A'     25 A'  

                2728.7    2730.1    2758.2    2760.8    2778.7
  
           1    0.0036   -0.0053   -0.0147   -0.0112    0.0014
           2    0.0019   -0.0051   -0.0250   -0.0205    0.0046
           3   -0.0000    0.0000    0.0000    0.0000   -0.0000
           4    0.0165   -0.0141   -0.0001    0.0018   -0.0004
           5   -0.0251    0.0236   -0.0053   -0.0071    0.0017
           6   -0.0000    0.0000    0.0000   -0.0000   -0.0001
           7    0.0000   -0.0015   -0.0000    0.0012   -0.0005
           8   -0.0059   -0.0000    0.0009    0.0000   -0.0000
           9    0.0000   -0.0000   -0.0000   -0.0000    0.0000
          10   -0.0163   -0.0138    0.0002    0.0018   -0.0003
          11   -0.0252   -0.0238   -0.0053    0.0071   -0.0017
          12    0.0000    0.0000   -0.0000    0.0000    0.0001
          13   -0.0036   -0.0054    0.0150   -0.0114    0.0015
          14    0.0019    0.0050   -0.0248    0.0204   -0.0046
          15    0.0000    0.0000   -0.0000    0.0000    0.0001
          16   -0.0000    0.0007    0.0000    0.0003    0.0064
          17    0.0017    0.0000   -0.0053    0.0000    0.0000
          18   -0.0000   -0.0000    0.0000   -0.0000   -0.0000
          19   -0.0000   -0.0001    0.0000    0.0039    0.0202
          20    0.0002   -0.0000   -0.0019    0.0000    0.0001
          21   -0.0000   -0.0002    0.0000    0.0002    0.0013
          22   -0.0270    0.0499    0.1952    0.1514   -0.0293
          23   -0.0481    0.0879    0.3415    0.2633   -0.0524
          24    0.0000   -0.0001   -0.0003   -0.0003   -0.0000
          25   -0.0000    0.0011   -0.0000   -0.0004    0.0003
          26    0.0009    0.0000    0.0003   -0.0000    0.0000
          27    0.0000   -0.0000   -0.0000   -0.0000   -0.0000
          28    0.1985    0.1761    0.0263   -0.0418    0.0098
          29    0.3528    0.3112    0.0460   -0.0731    0.0172
          30    0.0000    0.0000   -0.0000    0.0000    0.0001
          31    0.0275    0.0508   -0.1985    0.1540   -0.0298
          32   -0.0478   -0.0874    0.3396   -0.2619    0.0521
          33   -0.0000   -0.0001    0.0003   -0.0002    0.0002
          34    0.0000   -0.0002    0.0000   -0.0168   -0.0859
          35   -0.0000   -0.0000   -0.0002   -0.0001   -0.0005
          36   -0.0000   -0.0006    0.0000    0.0469    0.2341
          37   -0.0006    0.0015    0.0071   -0.0199   -0.1058
          38   -0.0007    0.0035    0.0115   -0.0430   -0.2212
          39   -0.0004    0.0017    0.0066   -0.0246   -0.1247
          40    0.0006    0.0015   -0.0072   -0.0203   -0.1080
          41   -0.0007   -0.0035    0.0114    0.0428    0.2202
          42    0.0004    0.0017   -0.0066   -0.0246   -0.1246
          43   -0.2019    0.1791   -0.0268   -0.0425    0.0099
          44    0.3509   -0.3095    0.0457    0.0727   -0.0171
          45   -0.0000    0.0000    0.0000   -0.0000   -0.0001
          46    0.0001   -0.0001    0.0000    0.0001   -0.0001
          47   -0.0005    0.0002   -0.0001   -0.0001    0.0000
          48    0.0000    0.0000   -0.0000   -0.0000   -0.0001
          49   -0.0000   -0.0001   -0.0000    0.0001   -0.0001
          50   -0.0005   -0.0002   -0.0001    0.0001   -0.0000
          51   -0.0000   -0.0000   -0.0000    0.0000    0.0000


           MASS-WEIGHTED COORDINATE ANALYSIS (NORMAL COORDINATES)


   Root No.       1         2         3         4         5         6         7         8

                 1 A"      2 A"      1 A'      3 A"      2 A'      4 A"      5 A"      3 A'  

                -132.1      44.3      85.7     202.8     261.1     353.6     357.9     368.1
  
           1    0.0067    0.0002   -0.0012    0.1246   -0.0016   -0.0354    0.1034   -0.1604
           2   -0.0093   -0.0013    0.0008    0.0742   -0.0001    0.0946   -0.2805    0.1132
           3   -0.0573   -0.2454   -0.2248    0.0009   -0.3213    0.3713    0.1299   -0.0009
           4    0.0092    0.0006   -0.0009    0.1001   -0.0015   -0.0447    0.1293   -0.1172
           5    0.0034   -0.0004    0.0008    0.2434    0.0004   -0.0042    0.0072    0.1290
           6   -0.0579   -0.2364   -0.3235   -0.0008    0.2504   -0.3751   -0.1247    0.0001
           7   -0.0000    0.0000    0.0006   -0.0015   -0.0004    0.0002   -0.0005    0.1430
           8    0.0052   -0.0004   -0.0000    0.3119   -0.0000   -0.0355    0.1012    0.0007
           9    0.0000    0.0000   -0.2398   -0.0000    0.4627   -0.0000    0.0000    0.0037
          10   -0.0092   -0.0006   -0.0008   -0.1025   -0.0014    0.0447   -0.1294   -0.1159
          11    0.0033   -0.0004   -0.0008    0.2424   -0.0004   -0.0038    0.0060   -0.1301
          12    0.0579    0.2364   -0.3234    0.0008    0.2504    0.3751    0.1247    0.0001
          13   -0.0066   -0.0002   -0.0012   -0.1254   -0.0016    0.0345   -0.1007   -0.1593
          14   -0.0093   -0.0013   -0.0008    0.0730    0.0001    0.0949   -0.2815   -0.1147
          15    0.0573    0.2454   -0.2247   -0.0009   -0.3213   -0.3713   -0.1300   -0.0009
          16    0.0001    0.0000   -0.0036   -0.0000   -0.0023   -0.0006    0.0017   -0.3625
          17   -0.0200   -0.0018   -0.0000    0.0015    0.0000    0.1182   -0.3467   -0.0018
          18    0.0000   -0.0000   -0.0301    0.0000   -0.3508    0.0000   -0.0000    0.0050
          19   -0.0001   -0.0000    0.0014    0.0017    0.0048    0.0007   -0.0021   -0.4106
          20    0.0127    0.0023    0.0000   -0.3582    0.0001   -0.1475    0.4409   -0.0020
          21   -0.0000   -0.0000    0.5201    0.0000    0.2263    0.0000   -0.0000   -0.0009
          22    0.0067    0.0005    0.0001    0.0672   -0.0002   -0.0261    0.0742   -0.0160
          23   -0.0055   -0.0007   -0.0000    0.0034   -0.0002    0.0357   -0.1035    0.0133
          24   -0.0295   -0.1271   -0.0676    0.0010   -0.1790    0.2875    0.0979   -0.0021
          25   -0.0000   -0.0000    0.0011   -0.0001   -0.0000    0.0002   -0.0007    0.2761
          26    0.0028    0.0003   -0.0000    0.0195   -0.0000   -0.0483    0.1452    0.0013
          27   -0.0000    0.0000    0.0901   -0.0000    0.1547   -0.0000    0.0000    0.0012
          28   -0.0040   -0.0002   -0.0004   -0.0568   -0.0005    0.0283   -0.0828   -0.0664
          29    0.0016   -0.0001   -0.0001    0.0833   -0.0001   -0.0092    0.0258   -0.0174
          30    0.0298    0.1184   -0.1153    0.0006    0.1279    0.2948    0.0991   -0.0008
          31   -0.0066   -0.0005    0.0001   -0.0672   -0.0002    0.0258   -0.0732   -0.0159
          32   -0.0055   -0.0007    0.0000    0.0027    0.0002    0.0359   -0.1042   -0.0135
          33    0.0295    0.1271   -0.0675   -0.0010   -0.1790   -0.2875   -0.0979   -0.0021
          34   -0.0028   -0.0000    0.1206    0.0007    0.1508    0.0003   -0.0009   -0.1237
          35    0.5818    0.0029    0.0006   -0.1347    0.0007   -0.0620    0.1817   -0.0006
          36   -0.0000   -0.0000    0.1961    0.0000    0.1240    0.0000   -0.0000   -0.0028
          37   -0.0239   -0.0027   -0.0585    0.0656   -0.0705    0.0560   -0.1577   -0.1166
          38   -0.2637    0.0015   -0.0022   -0.1365   -0.0025   -0.0758    0.2214   -0.0017
          39    0.4979    0.0011    0.2049    0.0012    0.1338    0.0079   -0.0244    0.0005
          40    0.0265    0.0027   -0.0585   -0.0643   -0.0705   -0.0553    0.1555   -0.1166
          41   -0.2635    0.0016    0.0016   -0.1371    0.0018   -0.0763    0.2229    0.0005
          42   -0.4979   -0.0011    0.2049   -0.0012    0.1338   -0.0079    0.0243    0.0005
          43    0.0039    0.0002   -0.0004    0.0560   -0.0005   -0.0282    0.0826   -0.0665
          44    0.0016   -0.0001    0.0001    0.0838    0.0001   -0.0095    0.0266    0.0167
          45   -0.0298   -0.1184   -0.1153   -0.0006    0.1279   -0.2948   -0.0991   -0.0008
          46   -0.0064    0.0004    0.0016   -0.4405    0.0007    0.0786   -0.2318    0.4485
          47   -0.0011    0.0007    0.0002   -0.2365    0.0002   -0.0073    0.0249    0.0719
          48   -0.0608    0.5948    0.2942    0.0027   -0.1937    0.0082    0.0014   -0.0023
          49    0.0065   -0.0004    0.0016    0.4428    0.0007   -0.0785    0.2315    0.4492
          50   -0.0011    0.0007   -0.0002   -0.2322   -0.0002   -0.0081    0.0272   -0.0676
          51    0.0608   -0.5947    0.2943   -0.0027   -0.1937   -0.0083   -0.0013   -0.0024


   Root No.       9        10        11        12        13        14        15        16

                 4 A'      6 A"      5 A'      7 A"      6 A'      7 A'      8 A'      9 A'  

                 469.4     535.1     616.2     617.6     627.2     729.9     795.6     887.8
  
           1    0.0053    0.1609    0.0421    0.3636   -0.1864    0.0022   -0.2279   -0.0066
           2    0.0005    0.0015    0.0434    0.2902   -0.2214   -0.0026   -0.1050   -0.0128
           3   -0.0720    0.0023   -0.2273   -0.0001   -0.0446   -0.0916    0.0010   -0.2510
           4    0.0051    0.1461    0.0468    0.3667   -0.2102    0.0020   -0.2330   -0.0050
           5   -0.0013    0.2818    0.0197   -0.3066   -0.1124   -0.0056    0.2137   -0.0038
           6   -0.2354   -0.0004    0.2043    0.0001    0.0388    0.0042    0.0025   -0.1552
           7    0.0007   -0.0013    0.0565    0.0007   -0.2920   -0.0074    0.1990   -0.0027
           8    0.0000    0.2760    0.0003   -0.1465   -0.0014   -0.0000    0.0010   -0.0000
           9    0.4720    0.0000   -0.1688   -0.0000   -0.0268   -0.4727   -0.0140    0.3195
          10    0.0050   -0.1488    0.0470   -0.3637   -0.2113    0.0019   -0.2309   -0.0050
          11    0.0013    0.2804   -0.0193   -0.3102    0.1104    0.0056   -0.2160    0.0037
          12   -0.2354    0.0004    0.2043   -0.0001    0.0388    0.0042    0.0025   -0.1552
          13    0.0053   -0.1609    0.0425   -0.3664   -0.1886    0.0022   -0.2289   -0.0067
          14   -0.0004   -0.0001   -0.0430    0.2866    0.2195    0.0026    0.1028    0.0127
          15   -0.0720   -0.0023   -0.2273    0.0001   -0.0446   -0.0916    0.0010   -0.2510
          16    0.0032    0.0006   -0.0411   -0.0007    0.2204    0.0041    0.1004    0.0132
          17   -0.0000   -0.1185   -0.0002    0.1383    0.0011    0.0000    0.0005    0.0000
          18    0.4754   -0.0000    0.4723    0.0000    0.1063    0.1774    0.0171    0.1141
          19   -0.0051   -0.0003   -0.0762   -0.0004    0.3474   -0.0030    0.3366    0.0022
          20   -0.0001    0.0681   -0.0004    0.0860    0.0017   -0.0000    0.0017   -0.0000
          21   -0.0359   -0.0000    0.0392    0.0000    0.0021    0.0400   -0.0090    0.1432
          22    0.0026    0.1068    0.0242    0.0675   -0.1065    0.0001   -0.0702   -0.0055
          23   -0.0007   -0.0327    0.0044    0.0962   -0.0297   -0.0005   -0.0224   -0.0010
          24   -0.1724    0.0006   -0.3397    0.0001   -0.0743    0.0206   -0.0134    0.4424
          25   -0.0019    0.0018    0.0330   -0.0000   -0.1853   -0.0090    0.4394    0.0158
          26    0.0000   -0.3650    0.0002    0.0002   -0.0009   -0.0000    0.0021    0.0001
          27    0.3328    0.0000   -0.3967   -0.0000   -0.0843    0.6695    0.0121   -0.1942
          28    0.0017   -0.0907    0.0070   -0.0710   -0.0247    0.0019   -0.1027   -0.0002
          29    0.0002    0.1038   -0.0017   -0.1001    0.0101    0.0008   -0.0371    0.0003
          30   -0.2868    0.0007    0.1494   -0.0002    0.0230    0.3020    0.0017    0.2709
          31    0.0026   -0.1064    0.0243   -0.0685   -0.1067    0.0000   -0.0704   -0.0056
          32    0.0007   -0.0338   -0.0042    0.0955    0.0286    0.0005    0.0217    0.0010
          33   -0.1724   -0.0006   -0.3397   -0.0001   -0.0743    0.0206   -0.0134    0.4424
          34   -0.1597   -0.0002   -0.1918   -0.0001    0.0712   -0.1051    0.1074   -0.2457
          35   -0.0008    0.0377   -0.0009    0.0286    0.0003   -0.0005    0.0005   -0.0012
          36   -0.0739   -0.0000   -0.0589   -0.0000   -0.0092   -0.0340    0.0061   -0.0725
          37    0.0726   -0.0463    0.0567    0.0006    0.1115    0.0473    0.0920    0.1147
          38    0.0023    0.0481    0.0016    0.0289    0.0029    0.0024    0.0004    0.0085
          39   -0.0821   -0.0068   -0.0647   -0.0035   -0.0174   -0.0400   -0.0043   -0.0918
          40    0.0726    0.0458    0.0567   -0.0008    0.1116    0.0473    0.0920    0.1147
          41   -0.0016    0.0486   -0.0011    0.0289   -0.0018   -0.0019    0.0005   -0.0074
          42   -0.0821    0.0068   -0.0647    0.0035   -0.0174   -0.0400   -0.0043   -0.0918
          43    0.0017    0.0897    0.0070    0.0720   -0.0246    0.0019   -0.1030   -0.0002
          44   -0.0002    0.1047    0.0017   -0.0994   -0.0103   -0.0007    0.0361   -0.0003
          45   -0.2868   -0.0007    0.1494    0.0002    0.0230    0.3020    0.0017    0.2709
          46   -0.0069    0.4256   -0.0642   -0.0187    0.3070    0.0042   -0.0737    0.0008
          47   -0.0024   -0.2037   -0.0523   -0.0264    0.2694    0.0080   -0.3484   -0.0115
          48   -0.1391    0.0001    0.1285   -0.0001    0.0275   -0.1935   -0.0030    0.0460
          49   -0.0069   -0.4236   -0.0647    0.0190    0.3097    0.0043   -0.0770    0.0007
          50    0.0024   -0.2078    0.0517   -0.0262   -0.2664   -0.0080    0.3477    0.0116
          51   -0.1391   -0.0001    0.1285    0.0001    0.0275   -0.1935   -0.0030    0.0460


   Root No.      17        18        19        20        21        22        23        24

                 8 A"     10 A'     11 A'      9 A"     10 A"     12 A'     13 A'     11 A"  

                 897.1     959.0    1012.1    1019.1    1031.3    1076.5    1080.2    1192.2
  
           1    0.0005   -0.0389    0.0011   -0.0006    0.0437    0.0079   -0.0039   -0.1062
           2   -0.0006   -0.3221   -0.0036    0.0016   -0.1615    0.3178   -0.2791    0.1724
           3   -0.2372    0.0055    0.2019    0.2994   -0.0044   -0.1431   -0.1610   -0.0022
           4    0.0000    0.0838    0.0056   -0.0005    0.0122   -0.0057    0.0146    0.1032
           5    0.0003   -0.4000   -0.0177    0.0002   -0.0475   -0.2427    0.1919    0.1687
           6   -0.2190    0.0115   -0.3351   -0.3151   -0.0031    0.0670    0.0732    0.0003
           7   -0.0000   -0.1984   -0.0065    0.0000   -0.0004   -0.1513    0.1324    0.0014
           8    0.0011   -0.0010   -0.0000   -0.0014    0.0795   -0.0007    0.0006   -0.2826
           9    0.0000   -0.0121    0.2313    0.0000   -0.0000   -0.0304   -0.0321   -0.0000
          10   -0.0000    0.0799    0.0055    0.0005   -0.0117   -0.0080    0.0165   -0.1049
          11    0.0003    0.4007    0.0178    0.0002   -0.0476    0.2426   -0.1917    0.1677
          12    0.2190    0.0115   -0.3351    0.3151    0.0031    0.0670    0.0732   -0.0003
          13   -0.0005   -0.0420    0.0011    0.0006   -0.0422    0.0110   -0.0066    0.1045
          14   -0.0006    0.3217    0.0037    0.0017   -0.1619   -0.3176    0.2791    0.1735
          15    0.2372    0.0055    0.2019   -0.2994    0.0045   -0.1430   -0.1611    0.0022
          16    0.0000    0.0886   -0.0075   -0.0000   -0.0005   -0.1119    0.0798    0.0014
          17   -0.0010    0.0004   -0.0000    0.0001    0.0995   -0.0005    0.0004   -0.2884
          18    0.0000   -0.0199    0.0786   -0.0000    0.0001    0.2833    0.3237    0.0000
          19    0.0000   -0.3293   -0.0136   -0.0000   -0.0021    0.1742   -0.1769   -0.0005
          20   -0.0037   -0.0016   -0.0000    0.0003    0.4313    0.0009   -0.0008    0.1031
          21    0.0000    0.0116   -0.1880   -0.0000    0.0002   -0.2464   -0.2967    0.0000
          22   -0.0021   -0.0901   -0.0025    0.0023    0.0281   -0.1284    0.1054    0.3607
          23    0.0016   -0.0436    0.0004   -0.0014   -0.0490    0.1551   -0.1308   -0.1792
          24    0.4607   -0.0074   -0.2220   -0.3773   -0.0010    0.1513    0.1740    0.0039
          25    0.0000    0.3078    0.0069   -0.0000    0.0000    0.0935   -0.0792   -0.0000
          26   -0.0001    0.0015    0.0000    0.0001   -0.0048    0.0004   -0.0004    0.0061
          27   -0.0000    0.0054   -0.0813    0.0000   -0.0001    0.0070    0.0071   -0.0000
          28   -0.0004    0.0971    0.0028    0.0013   -0.0926   -0.1364    0.1248    0.3545
          29    0.0003    0.0660    0.0041   -0.0006    0.0370    0.1341   -0.1133   -0.1768
          30   -0.4283   -0.0185    0.4318   -0.4107   -0.0035   -0.0531   -0.0568    0.0001
          31    0.0021   -0.0906   -0.0025   -0.0023   -0.0276   -0.1269    0.1042   -0.3589
          32    0.0016    0.0427   -0.0004   -0.0014   -0.0493   -0.1563    0.1318   -0.1827
          33   -0.4607   -0.0074   -0.2220    0.3773    0.0011    0.1513    0.1740   -0.0039
          34   -0.0000   -0.1005    0.2577    0.0000    0.0008    0.3746    0.3323    0.0004
          35    0.0082   -0.0005    0.0013   -0.0065   -0.1627    0.0018    0.0016   -0.0798
          36    0.0000   -0.0093    0.0696   -0.0000    0.0001    0.0910    0.0938    0.0000
          37   -0.0015   -0.0884   -0.1232   -0.0032    0.5505   -0.0972   -0.2208    0.0880
          38    0.0021    0.0058   -0.0108   -0.0002   -0.1970   -0.0140   -0.0191   -0.0422
          39   -0.0037    0.0020    0.0924    0.0035    0.0074    0.1017    0.1433    0.0207
          40    0.0015   -0.0883   -0.1233    0.0032   -0.5485   -0.0973   -0.2210   -0.0876
          41    0.0021   -0.0067    0.0096   -0.0002   -0.2024    0.0131    0.0170   -0.0431
          42    0.0037    0.0020    0.0924   -0.0035   -0.0073    0.1017    0.1433   -0.0207
          43    0.0004    0.0977    0.0028   -0.0013    0.0923   -0.1351    0.1237   -0.3527
          44    0.0003   -0.0651   -0.0040   -0.0006    0.0379   -0.1354    0.1145   -0.1803
          45    0.4283   -0.0185    0.4318    0.4107    0.0034   -0.0531   -0.0568   -0.0001
          46    0.0002    0.0447    0.0015   -0.0002    0.0093    0.0365   -0.0313   -0.0218
          47   -0.0001   -0.2508   -0.0070    0.0001   -0.0073   -0.0917    0.0751    0.0151
          48   -0.0013   -0.0013    0.0161   -0.0006   -0.0005   -0.0018   -0.0021   -0.0000
          49   -0.0002    0.0422    0.0015    0.0002   -0.0092    0.0356   -0.0305    0.0217
          50   -0.0001    0.2512    0.0069    0.0001   -0.0074    0.0920   -0.0755    0.0153
          51    0.0013   -0.0013    0.0161    0.0006    0.0003   -0.0018   -0.0022   -0.0000


   Root No.      25        26        27        28        29        30        31        32

                14 A'     12 A"     15 A'     16 A'     13 A"     14 A"     17 A'     18 A'  

                1252.1    1258.9    1266.0    1277.6    1339.4    1353.1    1378.0    1394.3
  
           1   -0.0151    0.0144   -0.0050   -0.0010    0.4075   -0.0644   -0.1569   -0.1540
           2   -0.1151   -0.0010   -0.0665   -0.0498   -0.1169    0.0860   -0.0882   -0.0374
           3    0.0006    0.0036    0.0017   -0.0024   -0.0006   -0.0005   -0.0002   -0.0000
           4    0.0516   -0.0135    0.0069   -0.0041   -0.3564   -0.1907    0.1099    0.0803
           5   -0.0213    0.0100   -0.0663   -0.0749   -0.0770   -0.1060   -0.1775   -0.1527
           6   -0.0003   -0.0015    0.0003    0.0003    0.0004    0.0004    0.0002   -0.0004
           7    0.5089    0.0000    0.1282   -0.0388   -0.0013    0.0007    0.3555    0.2907
           8    0.0025   -0.0061    0.0006   -0.0002    0.2590   -0.1463    0.0017    0.0014
           9   -0.0000   -0.0000    0.0004   -0.0003    0.0000    0.0000    0.0000   -0.0001
          10    0.0513    0.0134    0.0062   -0.0048    0.3571    0.1917    0.1082    0.0788
          11    0.0218    0.0102    0.0664    0.0748   -0.0736   -0.1041    0.1786    0.1535
          12   -0.0003    0.0015    0.0003    0.0003   -0.0004   -0.0004    0.0000   -0.0001
          13   -0.0162   -0.0144   -0.0057   -0.0015   -0.4064    0.0635   -0.1578   -0.1544
          14    0.1150   -0.0011    0.0664    0.0498   -0.1208    0.0866    0.0866    0.0359
          15    0.0006   -0.0036    0.0017   -0.0023    0.0006    0.0005   -0.0004    0.0003
          16    0.2759    0.0000   -0.0090   -0.0914   -0.0011   -0.0010   -0.4689   -0.3046
          17    0.0013   -0.0018   -0.0001   -0.0004    0.2265    0.2109   -0.0023   -0.0015
          18    0.0041    0.0000   -0.0221    0.0147   -0.0000   -0.0000    0.0056   -0.0077
          19   -0.2024    0.0012    0.0591   -0.0064    0.0000    0.0003    0.4802   -0.1515
          20   -0.0010   -0.2395    0.0002    0.0000   -0.0016   -0.0539    0.0023   -0.0007
          21    0.0507    0.0001   -0.1779    0.1090   -0.0000   -0.0000    0.0220   -0.0113
          22   -0.3099    0.0289    0.1567    0.4010    0.1480    0.4282   -0.0102   -0.0058
          23    0.1437   -0.0167   -0.1100   -0.2462   -0.0581   -0.2318   -0.0451   -0.0348
          24   -0.0031   -0.0080    0.0031    0.0018    0.0008    0.0024    0.0013   -0.0015
          25   -0.0934    0.0000   -0.0248    0.0046    0.0002   -0.0001   -0.0208    0.0146
          26   -0.0005   -0.0023   -0.0001   -0.0000   -0.0456    0.0135   -0.0001    0.0001
          27    0.0000   -0.0000   -0.0001    0.0001    0.0000    0.0000    0.0000    0.0002
          28   -0.2911    0.0415   -0.2732   -0.3045    0.2851   -0.3528    0.1334    0.1289
          29    0.1834   -0.0191    0.1761    0.1937   -0.1245    0.1991   -0.0073   -0.0169
          30    0.0003    0.0006   -0.0009    0.0001    0.0002    0.0002   -0.0000    0.0001
          31   -0.3084   -0.0288    0.1556    0.3986   -0.1475   -0.4259   -0.0107   -0.0061
          32   -0.1467   -0.0169    0.1115    0.2501   -0.0595   -0.2360    0.0450    0.0347
          33   -0.0031    0.0080    0.0031    0.0018   -0.0009   -0.0024    0.0012   -0.0013
          34    0.0439   -0.0035   -0.3310    0.2318    0.0001   -0.0001   -0.1814    0.3528
          35    0.0002    0.7285   -0.0016    0.0011   -0.0215    0.0219   -0.0009    0.0017
          36    0.0338    0.0000   -0.1550    0.1059   -0.0000   -0.0000   -0.0898    0.1513
          37   -0.0713    0.2354    0.0679   -0.0174   -0.0560   -0.0641   -0.2429    0.4408
          38    0.0851    0.0647   -0.2778    0.1642    0.0219    0.0266    0.1593   -0.2130
          39   -0.1101   -0.3775    0.4159   -0.2628    0.0243   -0.0012   -0.0035   -0.0418
          40   -0.0705   -0.2360    0.0652   -0.0158    0.0557    0.0639   -0.2413    0.4387
          41   -0.0858    0.0624    0.2784   -0.1644    0.0224    0.0272   -0.1617    0.2174
          42   -0.1102    0.3776    0.4159   -0.2628   -0.0243    0.0012   -0.0035   -0.0418
          43   -0.2893   -0.0414   -0.2714   -0.3026   -0.2839    0.3508    0.1333    0.1287
          44   -0.1862   -0.0195   -0.1788   -0.1966   -0.1273    0.2026    0.0086    0.0181
          45    0.0004   -0.0006   -0.0008    0.0001   -0.0002   -0.0002    0.0001   -0.0001
          46   -0.0776   -0.0016   -0.0128    0.0129    0.0013   -0.0115   -0.0551   -0.0565
          47    0.1505    0.0021    0.0280   -0.0163    0.0234    0.0041    0.0849    0.0914
          48    0.0001   -0.0007   -0.0007    0.0005    0.0001    0.0000    0.0001   -0.0001
          49   -0.0762    0.0016   -0.0126    0.0128   -0.0016    0.0114   -0.0543   -0.0556
          50   -0.1512    0.0021   -0.0280    0.0163    0.0234    0.0042   -0.0854   -0.0920
          51    0.0001    0.0006   -0.0008    0.0005   -0.0000   -0.0000   -0.0001    0.0003


   Root No.      33        34        35        36        37        38        39        40

                19 A'     15 A"     20 A'     21 A'     16 A"     17 A"     22 A'     18 A"  

                1484.6    1532.4    1568.4    1697.6    1700.5    1762.3    2662.7    2671.3
  
           1   -0.0193   -0.2827   -0.1431    0.4681   -0.1291    0.0445   -0.0007    0.0006
           2    0.0242   -0.1694    0.2640   -0.1341    0.2686   -0.0339    0.0013    0.0089
           3   -0.0001    0.0002   -0.0000    0.0000   -0.0003    0.0000   -0.0007   -0.0001
           4    0.0217    0.2958   -0.2603   -0.4393   -0.1400   -0.0279    0.0007   -0.0004
           5    0.0169   -0.1461   -0.2545   -0.1136   -0.2941    0.0422   -0.0005    0.0002
           6    0.0000    0.0001    0.0002    0.0000   -0.0000    0.0000   -0.0001   -0.0000
           7   -0.2173   -0.0021    0.3524    0.1568   -0.0028    0.0005   -0.0001   -0.0000
           8   -0.0011    0.4330    0.0017    0.0008    0.5693   -0.1100    0.0000    0.0008
           9   -0.0000    0.0000    0.0000   -0.0000   -0.0000    0.0000   -0.0000   -0.0000
          10    0.0219   -0.2944   -0.2628   -0.4404    0.1428    0.0275    0.0007    0.0004
          11   -0.0167   -0.1490    0.2519    0.1093   -0.2927    0.0425    0.0006    0.0002
          12   -0.0000   -0.0001    0.0001    0.0001    0.0000   -0.0000   -0.0001    0.0000
          13   -0.0190    0.2844   -0.1405    0.4668    0.1265   -0.0442   -0.0007   -0.0007
          14   -0.0244   -0.1666   -0.2654    0.1387    0.2698   -0.0343   -0.0014    0.0089
          15   -0.0001   -0.0002   -0.0001    0.0001    0.0003   -0.0000   -0.0006    0.0002
          16    0.0506   -0.0023    0.4712   -0.2639    0.0025   -0.0003    0.0061    0.0001
          17    0.0002    0.4693    0.0023   -0.0013   -0.5062    0.0526   -0.0000   -0.0189
          18    0.0012   -0.0000   -0.0001   -0.0006    0.0000   -0.0000   -0.0160    0.0001
          19    0.0022    0.0004   -0.1135    0.0220   -0.0002    0.0000   -0.0041    0.0014
          20    0.0000   -0.0737   -0.0006    0.0001    0.0396   -0.0028   -0.0001   -0.2775
          21   -0.0023   -0.0000   -0.0010    0.0032    0.0000   -0.0000   -0.2754    0.0001
          22    0.0170    0.1179    0.2034   -0.0286    0.0249   -0.0047   -0.0012   -0.0142
          23   -0.0029   -0.1396   -0.0768    0.0386    0.0062    0.0025   -0.0024   -0.0223
          24    0.0002    0.0009    0.0005   -0.0002   -0.0002    0.0000    0.0005    0.0003
          25    0.6835   -0.0001   -0.0025    0.0752   -0.0005   -0.0039    0.0002   -0.0000
          26    0.0033    0.0259   -0.0000    0.0004    0.0958    0.8047    0.0000    0.0003
          27    0.0002    0.0000   -0.0000    0.0001   -0.0000    0.0000    0.0002   -0.0001
          28   -0.0156    0.1204    0.1826    0.0107   -0.0144    0.0196   -0.0014   -0.0011
          29   -0.0014   -0.1397   -0.0810   -0.0290   -0.0193   -0.0068   -0.0026   -0.0013
          30    0.0001    0.0000   -0.0001   -0.0001   -0.0000    0.0000    0.0001    0.0000
          31    0.0170   -0.1165    0.2026   -0.0282   -0.0249    0.0047   -0.0012    0.0144
          32    0.0031   -0.1408    0.0788   -0.0388    0.0060    0.0026    0.0023   -0.0222
          33    0.0002   -0.0009    0.0005   -0.0002    0.0002   -0.0000    0.0005   -0.0002
          34   -0.0196   -0.0001   -0.0598    0.0202    0.0000   -0.0000   -0.3164    0.0002
          35   -0.0001    0.0150   -0.0003    0.0001   -0.0074    0.0008   -0.0016   -0.0408
          36   -0.0110   -0.0000   -0.0303    0.0203    0.0000   -0.0000    0.7452    0.0000
          37   -0.0238   -0.0696   -0.0693    0.0206    0.0439   -0.0042    0.1557    0.2889
          38    0.0100    0.0255    0.0274   -0.0118   -0.0224    0.0023    0.3042    0.5241
          39    0.0077    0.0044    0.0166   -0.0148   -0.0078    0.0009    0.1319    0.3186
[...]
 REDUCED MASS        0.1930         C  4 -- H 10         +12.0% ( 32.3%)      2.3%
 EFFECTIVE MASS      1.7486         C  2 -- H 15         +12.0% ( 32.3%)      2.3%
 FORCE CONSTANT      0.1823

 VIBRATION         28   16A'          ATOM PAIR      ENERGY CONTRIBUTION    RADIAL
 FREQUENCY          1277.65         C  5 -- H 11         +23.1% ( 46.1%)      0.4%
 TRANSITION DIPOLE   0.2953         C  1 -- H  8         +23.1% ( 46.1%)      0.4%
 TRAVEL (Ang.)       0.5752         C  2 -- H 15         +13.6% ( 35.4%)      2.2%
 REDUCED MASS        0.1595         C  4 -- H 10         +13.6% ( 35.4%)      2.2%
 EFFECTIVE MASS      1.4047
 FORCE CONSTANT      0.1534

 VIBRATION         29   13A"          ATOM PAIR      ENERGY CONTRIBUTION    RADIAL
 FREQUENCY          1339.40         C  4 -- C  5         +16.1% ( 63.3%)     99.7%
 TRANSITION DIPOLE   0.1507         C  1 -- C  2         +16.1% ( 63.3%)     99.7%
 TRAVEL (Ang.)       0.1963         C  1 -- C  6          +9.5% ( 48.5%)     88.7%
 REDUCED MASS        1.3067         C  5 -- C  6          +9.5% ( 48.5%)     88.7%
 EFFECTIVE MASS      9.1169
 FORCE CONSTANT      1.3812

 VIBRATION         30   14A"          ATOM PAIR      ENERGY CONTRIBUTION    RADIAL
 FREQUENCY          1353.15         C  5 -- H 11         +18.9% ( 47.9%)      0.3%
 TRANSITION DIPOLE   0.1290         C  1 -- H  8         +18.9% ( 47.9%)      0.3%
 TRAVEL (Ang.)       0.4424         C  2 -- H 15         +17.3% ( 45.8%)      0.0%
 REDUCED MASS        0.2546         C  4 -- H 10         +17.3% ( 45.8%)      0.0%
 EFFECTIVE MASS      2.3149
 FORCE CONSTANT      0.2747

 VIBRATION         31   17A'          ATOM PAIR      ENERGY CONTRIBUTION    RADIAL
 FREQUENCY          1377.98         C  6 -- C  7         +20.6% ( 65.9%)     99.9%
 TRANSITION DIPOLE   1.7179         C  7 -- H 14         +10.2% ( 46.3%)      4.9%
 TRAVEL (Ang.)       0.1803         C  7 -- H 13         +10.2% ( 46.3%)      4.9%
 REDUCED MASS        1.5050         C  5 -- C  6          +9.4% ( 44.4%)     51.2%
 EFFECTIVE MASS      9.4571
 FORCE CONSTANT      1.6837

 VIBRATION         32   18A'          ATOM PAIR      ENERGY CONTRIBUTION    RADIAL
 FREQUENCY          1394.27         C  7 -- H 14         +15.7% ( 43.6%)      0.5%
 TRANSITION DIPOLE   0.6966         C  7 -- H 13         +15.7% ( 43.6%)      0.5%
 TRAVEL (Ang.)       0.3585         C  7 -- H 12          +9.6% ( 34.2%)      0.2%
 REDUCED MASS        0.3764         C  2 -- C  3          +7.7% ( 30.6%)     82.6%
 EFFECTIVE MASS      4.4738
 FORCE CONSTANT      0.4311

 VIBRATION         33   19A'          ATOM PAIR      ENERGY CONTRIBUTION    RADIAL
 FREQUENCY          1484.65         N  9 -- O 16         +30.2% ( 76.6%)     63.5%
 TRANSITION DIPOLE   5.5412         N  9 -- O 17         +30.2% ( 76.6%)     63.5%
 TRAVEL (Ang.)       0.0963         C  3 -- N  9         +18.6% ( 60.1%)    100.0%
 REDUCED MASS        4.9012         O 16 -- O 17         +16.6% ( 56.9%)    100.0%
 EFFECTIVE MASS     14.8015
 FORCE CONSTANT      6.3650

 VIBRATION         34   15A"          ATOM PAIR      ENERGY CONTRIBUTION    RADIAL
 FREQUENCY          1532.38         C  5 -- C  6         +12.4% ( 49.9%)     34.5%
 TRANSITION DIPOLE   0.1651         C  1 -- C  6         +12.4% ( 49.9%)     34.5%
 TRAVEL (Ang.)       0.1670         C  2 -- C  3         +11.5% ( 48.1%)     30.7%
 REDUCED MASS        1.5783         C  3 -- C  4         +11.5% ( 48.1%)     30.8%
 EFFECTIVE MASS     10.3545         C  4 -- C  5         +10.0% ( 44.9%)     99.8%
 FORCE CONSTANT      2.1836         C  1 -- C  2         +10.0% ( 44.9%)     99.8%

 VIBRATION         35   20A'          ATOM PAIR      ENERGY CONTRIBUTION    RADIAL
 FREQUENCY          1568.42         C  5 -- C  6         +13.2% ( 50.0%)     64.5%
 TRANSITION DIPOLE   0.5217         C  1 -- C  6         +13.2% ( 50.0%)     64.4%
 TRAVEL (Ang.)       0.1750         C  3 -- C  4         +10.8% ( 45.3%)     61.7%
 REDUCED MASS        1.4045         C  2 -- C  3         +10.8% ( 45.3%)     61.7%
 EFFECTIVE MASS      9.5701
 FORCE CONSTANT      2.0356

 VIBRATION         36   21A'          ATOM PAIR      ENERGY CONTRIBUTION    RADIAL
 FREQUENCY          1697.62         C  4 -- C  5         +17.8% ( 59.3%)     99.9%
 TRANSITION DIPOLE   2.3829         C  1 -- C  2         +17.8% ( 59.3%)     99.9%
 TRAVEL (Ang.)       0.1277         C  5 -- C  6         +10.4% ( 45.4%)     42.4%
 REDUCED MASS        2.4354         C  1 -- C  6         +10.4% ( 45.4%)     42.4%
 EFFECTIVE MASS     11.9409
 FORCE CONSTANT      4.1352

 VIBRATION         37   16A"          ATOM PAIR      ENERGY CONTRIBUTION    RADIAL
 FREQUENCY          1700.45         C  3 -- C  4         +17.0% ( 57.5%)     88.2%
 TRANSITION DIPOLE   0.4769         C  2 -- C  3         +17.0% ( 57.5%)     88.2%
 TRAVEL (Ang.)       0.1256         C  1 -- C  6         +12.9% ( 50.1%)     87.5%
 REDUCED MASS        2.5127         C  5 -- C  6         +12.9% ( 50.1%)     87.5%
 EFFECTIVE MASS     11.9852         C  3 -- N  9         +10.0% ( 44.3%)      0.0%
 FORCE CONSTANT      4.2808

 VIBRATION         38   17A"          ATOM PAIR      ENERGY CONTRIBUTION    RADIAL
 FREQUENCY          1762.25         N  9 -- O 17         +35.0% ( 84.3%)     89.3%
 TRANSITION DIPOLE   6.5391         N  9 -- O 16         +35.0% ( 84.3%)     89.3%
 TRAVEL (Ang.)       0.0755         C  3 -- N  9         +22.1% ( 67.1%)      0.0%
 REDUCED MASS        6.7208         O 16 -- O 17          +5.9% ( 34.6%)      0.0%
 EFFECTIVE MASS     14.5724
 FORCE CONSTANT     12.2973

 VIBRATION         39   22A'          ATOM PAIR      ENERGY CONTRIBUTION    RADIAL
 FREQUENCY          2662.67         C  7 -- H 12         +69.2% ( 85.8%)     99.7%
 TRANSITION DIPOLE   0.7711         C  7 -- H 14         +15.0% ( 39.9%)     84.1%
 TRAVEL (Ang.)       0.2169         C  7 -- H 13         +15.0% ( 39.9%)     85.2%
 REDUCED MASS        0.5384         C  6 -- C  7          +0.8% (  9.4%)      0.1%
 EFFECTIVE MASS      1.4380
 FORCE CONSTANT      2.2488

 VIBRATION         40   18A"          ATOM PAIR      ENERGY CONTRIBUTION    RADIAL
 FREQUENCY          2671.32         C  7 -- H 13         +49.0% ( 72.3%)     97.7%
 TRANSITION DIPOLE   0.6065         C  7 -- H 14         +49.0% ( 72.3%)     98.1%
 TRAVEL (Ang.)       0.2253         C  6 -- C  7          +0.9% (  9.9%)      0.0%
 REDUCED MASS        0.4972         C  7 -- H 12          +0.9% (  9.6%)      0.0%
 EFFECTIVE MASS      1.4507
 FORCE CONSTANT      2.0906

 VIBRATION         41   19A"          ATOM PAIR      ENERGY CONTRIBUTION    RADIAL
 FREQUENCY          2728.68         C  4 -- H 10         +48.1% ( 70.0%)    100.0%
 TRANSITION DIPOLE   0.9879         C  2 -- H 15         +48.1% ( 70.0%)    100.0%
 TRAVEL (Ang.)       0.2347         C  5 -- H 11          +0.9% (  9.6%)     98.9%
 REDUCED MASS        0.4487         C  1 -- H  8          +0.9% (  9.6%)     98.9%
 EFFECTIVE MASS      1.3699
 FORCE CONSTANT      1.9683

 VIBRATION         42   23A'          ATOM PAIR      ENERGY CONTRIBUTION    RADIAL
 FREQUENCY          2730.05         C  2 -- H 15         +45.2% ( 68.0%)    100.0%
 TRANSITION DIPOLE   0.7450         C  4 -- H 10         +45.2% ( 68.0%)    100.0%
 TRAVEL (Ang.)       0.2478         C  1 -- H  8          +3.6% ( 19.3%)     99.7%
 REDUCED MASS        0.4021         C  5 -- H 11          +3.6% ( 19.3%)     99.7%
 EFFECTIVE MASS      1.4040
 FORCE CONSTANT      1.7658

 VIBRATION         43   20A"          ATOM PAIR      ENERGY CONTRIBUTION    RADIAL
 FREQUENCY          2758.22         C  1 -- H  8         +48.0% ( 69.9%)    100.0%
 TRANSITION DIPOLE   1.2232         C  5 -- H 11         +48.0% ( 69.9%)    100.0%
 TRAVEL (Ang.)       0.2338         C  2 -- H 15          +0.9% (  9.4%)     97.9%
 REDUCED MASS        0.4473         C  4 -- H 10          +0.9% (  9.4%)     97.9%
 EFFECTIVE MASS      1.3716
 FORCE CONSTANT      2.0052

 VIBRATION         44   24A'          ATOM PAIR      ENERGY CONTRIBUTION    RADIAL
 FREQUENCY          2760.82         C  5 -- H 11         +43.8% ( 66.7%)    100.0%
 TRANSITION DIPOLE   0.2739         C  1 -- H  8         +43.8% ( 66.7%)    100.0%
 TRAVEL (Ang.)       0.2557         C  2 -- H 15          +3.3% ( 18.4%)     99.5%
 REDUCED MASS        0.3736         C  4 -- H 10          +3.3% ( 18.4%)     99.5%
 EFFECTIVE MASS      1.4106
 FORCE CONSTANT      1.6779

 VIBRATION         45   25A'          ATOM PAIR      ENERGY CONTRIBUTION    RADIAL
 FREQUENCY          2778.73         C  7 -- H 13         +34.0% ( 56.1%)     95.9%
 TRANSITION DIPOLE   0.7111         C  7 -- H 14         +34.0% ( 56.1%)     95.8%
 TRAVEL (Ang.)       0.2823         C  7 -- H 12         +27.4% ( 50.4%)     94.2%
 REDUCED MASS        0.3044         C  1 -- H  8          +1.8% ( 12.9%)     99.7%
 EFFECTIVE MASS      1.1588
 FORCE CONSTANT      1.3848

      SYMMETRY NUMBER FOR POINT-GROUP Cs  =  1


          SYSTEM IS A GROUND STATE



 p-nitrotoluen


          MOLECULE IS NOT LINEAR

          THERE ARE 45 GENUINE VIBRATIONS IN THIS SYSTEM
          THIS THERMODYNAMICS CALCULATION IS LIMITED TO
          MOLECULES WHICH HAVE NO INTERNAL ROTATIONS




                    CALCULATED THERMODYNAMIC PROPERTIES
                                          *
   TEMP. (K)   PARTITION FUNCTION   H.O.F.    ENTHALPY  HEAT CAPACITY ENTROPY
                                   KCAL/MOL   CAL/MOLE    CAL/K/MOL  CAL/K/MOL


 298.00  VIB.     0.2105D+03                  3680.9231    25.7528    22.9830
         ROT.     0.5882D+06                   888.2803     2.9808    29.3805
         INT.     0.1238D+09                  4569.2034    28.7336    52.3635
         TRA.     0.1553D+28                  1480.4672     4.9680    40.6572
         TOT.                        7.545    6049.6706    33.7016    93.0206

 200.00  VIB.     0.2809D+02                  1608.1709    16.6347    14.6693
         ROT.     0.3234D+06                   596.1613     2.9808    28.1918
         INT.     0.9086D+07                  2204.3322    19.6155    42.8611
         TRA.     0.8537D+27                   993.6021     4.9680    38.6760
         TOT.                        4.693    3197.9343    24.5836    81.5371

 210.00  VIB.     0.3441D+02                  1779.0176    17.5360    15.5027
         ROT.     0.3480D+06                   625.9693     2.9808    28.3372
         INT.     0.1197D+08                  2404.9869    20.5168    43.8399
         TRA.     0.9185D+27                  1043.2822     4.9680    38.9184
         TOT.                        4.943    3448.2691    25.4848    82.7583

 220.00  VIB.     0.4216D+02                  1958.9199    18.4458    16.3394
         ROT.     0.3731D+06                   655.7774     2.9808    28.4759
         INT.     0.1573D+08                  2614.6973    21.4266    44.8153
         TRA.     0.9848D+27                  1092.9623     4.9680    39.1495
         TOT.                        5.203    3707.6596    26.3947    83.9649

 230.00  VIB.     0.5171D+02                  2147.9617    19.3638    17.1796
         ROT.     0.3988D+06                   685.5855     2.9808    28.6084
         INT.     0.2062D+08                  2833.5472    22.3446    45.7880
         TRA.     0.1053D+28                  1142.6424     4.9680    39.3704
         TOT.                        5.471    3976.1896    27.3127    85.1584

 240.00  VIB.     0.6345D+02                  2346.2219    20.2894    18.0233
         ROT.     0.4251D+06                   715.3935     2.9808    28.7353
         INT.     0.2697D+08                  3061.6154    23.2702    46.7585
         TRA.     0.1122D+28                  1192.3226     4.9680    39.5818
         TOT.                        5.749    4253.9380    28.2382    86.3403

 250.00  VIB.     0.7791D+02                  2553.7720    21.2217    18.8704
         ROT.     0.4520D+06                   745.2016     2.9808    28.8569
         INT.     0.3521D+08                  3298.9736    24.2025    47.7273
         TRA.     0.1193D+28                  1242.0027     4.9680    39.7846
         TOT.                        6.036    4540.9763    29.1705    87.5119

 260.00  VIB.     0.9572D+02                  2770.6741    22.1596    19.7210
         ROT.     0.4794D+06                   775.0097     2.9808    28.9739
         INT.     0.4589D+08                  3545.6837    25.1404    48.6948
         TRA.     0.1265D+28                  1291.6828     4.9680    39.9795
         TOT.                        6.332    4837.3665    30.1084    88.6743

 270.00  VIB.     0.1177D+03                  2996.9786    23.1020    20.5749
         ROT.     0.5073D+06                   804.8177     2.9808    29.0864
         INT.     0.5970D+08                  3801.7963    26.0828    49.6613
         TRA.     0.1339D+28                  1341.3629     4.9680    40.1670
         TOT.                        6.638    5143.1592    31.0508    89.8283

 280.00  VIB.     0.1448D+03                  3232.7235    24.0474    21.4322
         ROT.     0.5357D+06                   834.6258     2.9808    29.1948
         INT.     0.7756D+08                  4067.3493    27.0282    50.6269
         TRA.     0.1414D+28                  1391.0430     4.9680    40.3476
         TOT.                        6.953    5458.3923    31.9963    90.9746

 290.00  VIB.     0.1782D+03                  3477.9333    24.9947    22.2926
         ROT.     0.5647D+06                   864.4339     2.9808    29.2994
         INT.     0.1006D+09                  4342.3671    27.9755    51.5919
         TRA.     0.1491D+28                  1440.7231     4.9680    40.5220
         TOT.                        7.278    5783.0902    32.9435    92.1139

 300.00  VIB.     0.2195D+03                  3732.6181    25.9422    23.1559
         ROT.     0.5941D+06                   894.2419     2.9808    29.4004
         INT.     0.1304D+09                  4626.8600    28.9230    52.5563
         TRA.     0.1568D+28                  1490.4032     4.9680    40.6904
         TOT.                        7.612    6117.2632    33.8910    93.2467

 310.00  VIB.     0.2705D+03                  3996.7742    26.8887    24.0220
         ROT.     0.6241D+06                   924.0500     2.9808    29.4982
         INT.     0.1688D+09                  4920.8242    29.8695    53.5201
         TRA.     0.1647D+28                  1540.0833     4.9680    40.8533
         TOT.                        7.956    6460.9075    34.8375    94.3734

 320.00  VIB.     0.3336D+03                  4270.3837    27.8327    24.8906
         ROT.     0.6545D+06                   953.8580     2.9808    29.5928
         INT.     0.2184D+09                  5224.2417    30.8135    54.4834
         TRA.     0.1728D+28                  1589.7634     4.9680    41.0110
         TOT.                        8.309    6814.0052    35.7815    95.4944

 330.00  VIB.     0.4116D+03                  4553.4153    28.7729    25.7614
         ROT.     0.6854D+06                   983.6661     2.9808    29.6845
         INT.     0.2821D+09                  5537.0814    31.7537    55.4459
         TRA.     0.1809D+28                  1639.4435     4.9680    41.1639
         TOT.                        8.671    7176.5249    36.7217    96.6098

 340.00  VIB.     0.5082D+03                  4845.8246    29.7080    26.6343
         ROT.     0.7168D+06                  1013.4742     2.9808    29.7735
         INT.     0.3643D+09                  5859.2988    32.6888    56.4078
         TRA.     0.1892D+28                  1689.1236     4.9680    41.3122
         TOT.                        9.043    7548.4224    37.6569    97.7200

 350.00  VIB.     0.6277D+03                  5147.5553    30.6370    27.5089
         ROT.     0.7487D+06                  1043.2822     2.9808    29.8599
         INT.     0.4699D+09                  6190.8375    33.6178    57.3688
         TRA.     0.1976D+28                  1738.8037     4.9680    41.4562
         TOT.                        9.425    7929.6413    38.5858    98.8250

 360.00  VIB.     0.7757D+03                  5458.5396    31.5586    28.3849
         ROT.     0.7810D+06                  1073.0903     2.9808    29.9439
         INT.     0.6058D+09                  6531.6299    34.5394    58.3288
         TRA.     0.2062D+28                  1788.4838     4.9680    41.5962
         TOT.                        9.815    8320.1137    39.5074    99.9249

 370.00  VIB.     0.9590D+03                  5778.6995    32.4719    29.2620
         ROT.     0.8138D+06                  1102.8984     2.9808    30.0255
         INT.     0.7804D+09                  6881.5979    35.4527    59.2876
         TRA.     0.2148D+28                  1838.1639     4.9680    41.7323
         TOT.                       10.215    8719.7618    40.4208   101.0199

 380.00  VIB.     0.1186D+04                  6107.9477    33.3761    30.1400
         ROT.     0.8470D+06                  1132.7064     2.9808    30.1050
         INT.     0.1005D+10                  7240.6542    36.3569    60.2451
         TRA.     0.2236D+28                  1887.8440     4.9680    41.8648
         TOT.                       10.623    9128.4982    41.3249   102.1098

 390.00  VIB.     0.1468D+04                  6446.1887    34.2704    31.0186
         ROT.     0.8806D+06                  1162.5145     2.9808    30.1825
         INT.     0.1293D+10                  7608.7032    37.2512    61.2010
         TRA.     0.2325D+28                  1937.5242     4.9680    41.9938
         TOT.                       11.041    9546.2273    42.2192   103.1949

 400.00  VIB.     0.1817D+04                  6793.3195    35.1540    31.8974
         ROT.     0.9147D+06                  1192.3226     2.9808    30.2579
         INT.     0.1662D+10                  7985.6420    38.1348    62.1553
         TRA.     0.2414D+28                  1987.2043     4.9680    42.1196
         TOT.                       11.468    9972.8463    43.1028   104.2749

   *: NOTE: HEATS OF FORMATION ARE RELATIVE TO THE
            ELEMENTS IN THEIR STANDARD STATE AT 298K
              (=  Standard Enthalpy of Formation).

            Hvib:  Zero-point energy is not included.
                   frequencies of less than zero cm-1 are not included.
            Hrot = (3/2)RT
            Htra = (3/2)RT + pV = (5/2)RT

            Heat capacity is Cp, not Cv

          For more information, see: HTTP://OpenMOPAC.net/Manual/thermochemistry.html


           FORCE CONSTANT IN CARTESIAN COORDINATES (Millidynes/A)

    ATOM   CHEMICAL       X               Y               Z
   NUMBER   SYMBOL  FORCE CONSTANT  FORCE CONSTANT  FORCE CONSTANT

      1       C       11.155921        9.878845        2.384595
      2       C       11.242207        9.969972        2.411118
      3       C       10.379275       12.308302        2.349478
      4       C       11.253186        9.958993        2.411118
      5       C       11.146456        9.888310        2.384595
      6       C       11.138282       11.382680        2.830384
      7       C        7.591638        6.469884        5.993815
      8       H        1.761628        3.440219        0.387374
      9       N       10.843980       17.201755        3.005498
     10       H        1.721435        3.391449        0.396568
     11       H        1.789615        3.412232        0.387374
     12       H        1.191273        0.530322        3.579535
     13       H        1.338863        2.806705        1.241163
     14       H        1.360120        2.785449        1.241162
     15       H        1.748481        3.364403        0.396568
     16       O        3.975361       10.117726        0.346078
     17       O        3.888581       10.204506        0.346078

 **********************
 *                    *
 * JOB ENDED NORMALLY *
 *                    *
 **********************



 TOTAL JOB TIME:            10.73 SECONDS

 == MOPAC DONE ==
