 *******************************************************************************
 **                                                                           **
 **                              MOPAC v22.1.0                                **
 **                                                                           **
 *******************************************************************************
 **          Digital Object Identifier (DOI): 10.5281/zenodo.6511958          **
 **    Visit the DOI location for information on how to cite this program.    **
 *******************************************************************************

                              PM7 CALCULATION RESULTS

 *******************************************************************************
 *  CALCULATION DONE:                                Fri Mar 15 21:26:35 2024  *
 *  PM7        - The PM7 Hamiltonian to be used
 *  SINGLET    - SPIN STATE DEFINED AS A SINGLET
 *
 *
 *
 *                 CHARGE ON SYSTEM = 0
 *
 *
 *
 *  PRECISE    - TIGHTER CRITERIA TO BE USED
 *  T=         - A TIME OF 172800.0 SECONDS REQUESTED
 *  DUMP=N     - RESTART FILE WRITTEN EVERY 7200.0 SECONDS REQUESTED
 *  LARGE      - EXPANDED OUTPUT TO BE PRINTED
 *******************************************************************************
 PRECISE LARGE CHARGE=0 SINGLET  PM7
 toluene

   ATOM   CHEMICAL          X               Y               Z
  NUMBER   SYMBOL      (ANGSTROMS)     (ANGSTROMS)     (ANGSTROMS)
 
     1       C          1.19147000  *  -0.18037000  *   0.07073000  *
     2       C          0.96863000  *  -1.55841000  *   0.06353000  *
     3       C         -0.33191000  *  -2.05504000  *  -0.00052000  *
     4       C         -1.41015000  *  -1.17422000  *  -0.06137000  *
     5       C         -1.18858000  *   0.20403000  *  -0.05424000  *
     6       C          0.11376000  *   0.71267000  *   0.02488000  *
     7       C          0.35441000  *   2.19277000  *  -0.00365000  *
     8       H          2.21212000  *   0.19274000  *   0.11339000  *
     9       H          1.81061000  *  -2.24423000  *   0.10491000  *
    10       H         -0.50481000  *  -3.12779000  *  -0.00735000  *
    11       H         -2.42446000  *  -1.56023000  *  -0.11743000  *
    12       H         -2.03924000  *   0.87935000  *  -0.10984000  *
    13       H          0.46624000  *   2.53385000  *  -1.03742000  *
    14       H          1.25995000  *   2.45199000  *   0.55493000  *
    15       H         -0.47805000  *   2.73290000  *   0.45947000  *
 


          CARTESIAN COORDINATES 

    NO.       ATOM           X           Y           Z

     1         C          1.1915     -0.1804      0.0707
     2         C          0.9686     -1.5584      0.0635
     3         C         -0.3319     -2.0550     -0.0005
     4         C         -1.4102     -1.1742     -0.0614
     5         C         -1.1886      0.2040     -0.0542
     6         C          0.1138      0.7127      0.0249
     7         C          0.3544      2.1928     -0.0037
     8         H          2.2121      0.1927      0.1134
     9         H          1.8106     -2.2442      0.1049
    10         H         -0.5048     -3.1278     -0.0073
    11         H         -2.4245     -1.5602     -0.1174
    12         H         -2.0392      0.8794     -0.1098
    13         H          0.4662      2.5339     -1.0374
    14         H          1.2599      2.4520      0.5549
    15         H         -0.4781      2.7329      0.4595

 General Reference for PM7:
 "Optimization of Parameters for Semiempirical Methods VI: More Modifications to the 
 NDDO Approximations and Re-optimization of Parameters", J. J. P. Stewart, J. Mol. Mod., 1:32, 19 (2013)
 https://link.springer.com/article/10.1007/s00894-012-1667-x

           Empirical Formula: C7 H8  =    15 atoms



      MOLECULAR POINT GROUP   :   Cs  


 SINGLET STATE CALCULATION


      RHF CALCULATION, NO. OF DOUBLY OCCUPIED LEVELS = 18


          Geometry optimization using EF

          DIAGONAL MATRIX USED AS START HESSIAN

 CYCLE:     1 TIME:   0.039 TIME LEFT:  2.00D  GRAD.:    19.811 HEAT:  13.43781
 CYCLE:     2 TIME:   0.055 TIME LEFT:  2.00D  GRAD.:    15.702 HEAT:  13.30343
 CYCLE:     3 TIME:   0.062 TIME LEFT:  2.00D  GRAD.:    13.209 HEAT:  13.25000
 CYCLE:     4 TIME:   0.031 TIME LEFT:  2.00D  GRAD.:    11.079 HEAT:  13.23820
 CYCLE:     5 TIME:   0.039 TIME LEFT:  2.00D  GRAD.:     8.007 HEAT:  13.22689
 CYCLE:     6 TIME:   0.023 TIME LEFT:  2.00D  GRAD.:     7.901 HEAT:  13.22119
 CYCLE:     7 TIME:   0.031 TIME LEFT:  2.00D  GRAD.:     2.294 HEAT:  13.20143
 CYCLE:     8 TIME:   0.031 TIME LEFT:  2.00D  GRAD.:     2.939 HEAT:  13.20124
 CYCLE:     9 TIME:   0.031 TIME LEFT:  2.00D  GRAD.:     1.579 HEAT:  13.19816
 CYCLE:    10 TIME:   0.031 TIME LEFT:  2.00D  GRAD.:     2.470 HEAT:  13.19918
 CYCLE:    11 TIME:   0.031 TIME LEFT:  2.00D  GRAD.:     0.668 HEAT:  13.19680
 CYCLE:    12 TIME:   0.031 TIME LEFT:  2.00D  GRAD.:     1.255 HEAT:  13.19687
 CYCLE:    13 TIME:   0.031 TIME LEFT:  2.00D  GRAD.:     0.377 HEAT:  13.19639
 CYCLE:    14 TIME:   0.039 TIME LEFT:  2.00D  GRAD.:     0.454 HEAT:  13.19634
 CYCLE:    15 TIME:   0.039 TIME LEFT:  2.00D  GRAD.:     0.288 HEAT:  13.19628
 CYCLE:    16 TIME:   0.023 TIME LEFT:  2.00D  GRAD.:     0.441 HEAT:  13.19628
 CYCLE:    17 TIME:   0.031 TIME LEFT:  2.00D  GRAD.:     0.181 HEAT:  13.19624
 CYCLE:    18 TIME:   0.031 TIME LEFT:  2.00D  GRAD.:     0.244 HEAT:  13.19624
 CYCLE:    19 TIME:   0.031 TIME LEFT:  2.00D  GRAD.:     0.132 HEAT:  13.19622
 CYCLE:    20 TIME:   0.031 TIME LEFT:  2.00D  GRAD.:     0.192 HEAT:  13.19622
 CYCLE:    21 TIME:   0.023 TIME LEFT:  2.00D  GRAD.:     0.048 HEAT:  13.19620

     GRADIENT =  0.04842 IS LESS THAN CUTOFF =  0.05000



 -------------------------------------------------------------------------------
 PRECISE LARGE CHARGE=0 SINGLET  PM7
 toluene



     GEOMETRY OPTIMISED USING EIGENVECTOR FOLLOWING (EF).     
     SCF FIELD WAS ACHIEVED                                   


                              PM7 CALCULATION
                                                       MOPAC v22.1.0 Windows
                                                       Fri Mar 15 21:26:36 2024




          FINAL HEAT OF FORMATION =         13.19620 KCAL/MOL =      55.21291 KJ/MOL


          COSMO AREA              =        138.58 SQUARE ANGSTROMS
          COSMO VOLUME            =        129.82 CUBIC ANGSTROMS

          GRADIENT NORM           =          0.04842          =       0.01250 PER ATOM
          IONIZATION POTENTIAL    =          9.425735 EV
          HOMO LUMO ENERGIES (EV) =         -9.426  0.317
          NO. OF FILLED LEVELS    =         18
          MOLECULAR WEIGHT        =         92.1402         POINT GROUP:  Cs  

          MOLECULAR DIMENSIONS (Angstroms)

            Atom       Atom       Distance
            H    15    H    10     5.88208
            H    11    H     8     4.62642
            H    13    H    14     1.56460


          SCF CALCULATIONS        =         24
 
          WALL-CLOCK TIME         =      0.797 SECONDS
          COMPUTATION TIME        =      2.281 SECONDS




   ATOM   CHEMICAL          X               Y               Z
  NUMBER   SYMBOL      (ANGSTROMS)     (ANGSTROMS)     (ANGSTROMS)
 
     1       C          1.19232695  *  -0.18034797  *   0.07047344  *
     2       C          0.96862389  *  -1.55502690  *   0.06412497  *
     3       C         -0.33153753  *  -2.05305686  *  -0.00138893  *
     4       C         -1.40914162  *  -1.17101175  *  -0.06077434  *
     5       C         -1.18937752  *   0.20431108  *  -0.05457799  *
     6       C          0.11325172  *   0.70526502  *   0.01160124  *
     7       C          0.35161792  *   2.17747402  *   0.00225964  *
     8       H          2.20830398  *   0.20342145  *   0.12076587  *
     9       H          1.81171085  *  -2.24160189  *   0.11058888  *
    10       H         -0.50463116  *  -3.12625390  *  -0.00607667  *
    11       H         -2.42521818  *  -1.55734799  *  -0.11204622  *
    12       H         -2.03304823  *   0.88843377  *  -0.10185823  *
    13       H          0.46757610  *   2.54557111  *  -1.02899098  *
    14       H          1.26216410  *   2.45638499  *   0.54997659  *
    15       H         -0.47805519  *   2.73769184  *   0.45468146  *

                             CARTESIAN COORDINATES

   1    C        1.192326948    -0.180347967     0.070473436
   2    C        0.968623886    -1.555026904     0.064124970
   3    C       -0.331537529    -2.053056864    -0.001388928
   4    C       -1.409141621    -1.171011754    -0.060774338
   5    C       -1.189377522     0.204311080    -0.054577991
   6    C        0.113251716     0.705265017     0.011601236
   7    C        0.351617925     2.177474022     0.002259642
   8    H        2.208303976     0.203421452     0.120765874
   9    H        1.811710851    -2.241601889     0.110588879
  10    H       -0.504631164    -3.126253898    -0.006076672
  11    H       -2.425218182    -1.557347986    -0.112046215
  12    H       -2.033048228     0.888433769    -0.101858231
  13    H        0.467576096     2.545571109    -1.028990982
  14    H        1.262164105     2.456384988     0.549976591
  15    H       -0.478055189     2.737691840     0.454681458


           Empirical Formula: C7 H8  =    15 atoms



      MOLECULAR POINT GROUP   :   Cs  


                  EIGENVALUES  
 -30.48969 -27.21569 -25.76585 -23.61778 -20.99470 -20.12919 -17.41799 -15.62238
 -15.20604 -14.70003 -14.18457 -13.89278 -13.22377 -12.83707 -11.90957 -11.73405
  -9.76131  -9.42573   0.31746   0.36213   2.66140   4.02355   4.45431   4.91733
   5.07976   5.34175   5.37140   5.55270   5.70245   5.79464   5.97646   6.20477
   6.29638   6.33157   6.43170   6.76750


              NET ATOMIC CHARGES AND DIPOLE CONTRIBUTIONS

  ATOM NO.   TYPE          CHARGE      No. of ELECS.   s-Pop       p-Pop       
    1          C          -0.190249        4.1902     1.08278     3.10747
    2          C          -0.129968        4.1300     1.08368     3.04629
    3          C          -0.172898        4.1729     1.08099     3.09190
    4          C          -0.129970        4.1300     1.08368     3.04629
    5          C          -0.190227        4.1902     1.08278     3.10745
    6          C           0.048972        3.9510     1.06776     2.88326
    7          C          -0.457628        4.4576     1.04982     3.40781
    8          H           0.151146        0.8489     0.84885
    9          H           0.147048        0.8530     0.85295
   10          H           0.149325        0.8507     0.85067
   11          H           0.147046        0.8530     0.85295
   12          H           0.151145        0.8489     0.84885
   13          H           0.162448        0.8376     0.83755
   14          H           0.156919        0.8431     0.84308
   15          H           0.156891        0.8431     0.84311
 DIPOLE           X         Y         Z       TOTAL
 POINT-CHG.     0.089     0.532    -0.055     0.543
 HYBRID         0.017     0.102    -0.009     0.104
 SUM            0.106     0.635    -0.064     0.647


          ATOMIC ORBITAL ELECTRON POPULATIONS

     Atom    s        px        py        pz   
    1  C   1.08278   1.06861   1.00150   1.03735
    2  C   1.08368   1.04028   1.02054   0.98547
    3  C   1.08099   0.99148   1.07497   1.02545
    4  C   1.08368   1.06397   0.99681   0.98551
    5  C   1.08278   1.04372   1.02663   1.03710
    6  C   1.06776   0.97629   0.95702   0.94996
    7  C   1.04982   1.18383   1.04405   1.17993
    8  H   0.84885
    9  H   0.85295
   10  H   0.85067
   11  H   0.85295
   12  H   0.84885
   13  H   0.83755
   14  H   0.84308
   15  H   0.84311
 *******************************************************************************
 **                                                                           **
 **                              MOPAC v22.1.0                                **
 **                                                                           **
 *******************************************************************************
 **          Digital Object Identifier (DOI): 10.5281/zenodo.6511958          **
 **    Visit the DOI location for information on how to cite this program.    **
 *******************************************************************************

                              PM7 CALCULATION RESULTS

 *******************************************************************************
 *  CALCULATION DONE:                                Fri Mar 15 21:26:36 2024  *
 *  PM7        - The PM7 Hamiltonian to be used
 *  SINGLET    - SPIN STATE DEFINED AS A SINGLET
 *
 *
 *
 *                 CHARGE ON SYSTEM = 0
 *
 *
 *
 *  OLDGEO     - PREVIOUS GEOMETRY TO BE USED
 *  PRECISE    - TIGHTER CRITERIA TO BE USED
 *  T=         - A TIME OF 172800.0 SECONDS REQUESTED
 *  DUMP=N     - RESTART FILE WRITTEN EVERY 7200.0 SECONDS REQUESTED
 *  THERMO     - THERMODYNAMIC QUANTITIES TO BE CALCULATED
 *******************************************************************************
OLDGEO CHARGE=0 SINGLET PRECISE PM7 THERMO
 toluene

   ATOM   CHEMICAL          X               Y               Z
  NUMBER   SYMBOL      (ANGSTROMS)     (ANGSTROMS)     (ANGSTROMS)
 
     1       C          1.19232695  *  -0.18034797  *   0.07047344  *
     2       C          0.96862389  *  -1.55502690  *   0.06412497  *
     3       C         -0.33153753  *  -2.05305686  *  -0.00138893  *
     4       C         -1.40914162  *  -1.17101175  *  -0.06077434  *
     5       C         -1.18937752  *   0.20431108  *  -0.05457799  *
     6       C          0.11325172  *   0.70526502  *   0.01160124  *
     7       C          0.35161792  *   2.17747402  *   0.00225964  *
     8       H          2.20830398  *   0.20342145  *   0.12076587  *
     9       H          1.81171085  *  -2.24160189  *   0.11058888  *
    10       H         -0.50463116  *  -3.12625390  *  -0.00607667  *
    11       H         -2.42521818  *  -1.55734799  *  -0.11204622  *
    12       H         -2.03304823  *   0.88843377  *  -0.10185823  *
    13       H          0.46757610  *   2.54557111  *  -1.02899098  *
    14       H          1.26216410  *   2.45638499  *   0.54997659  *
    15       H         -0.47805519  *   2.73769184  *   0.45468146  *
 


          CARTESIAN COORDINATES 

    NO.       ATOM           X           Y           Z

     1         C          1.1923     -0.1803      0.0705
     2         C          0.9686     -1.5550      0.0641
     3         C         -0.3315     -2.0531     -0.0014
     4         C         -1.4091     -1.1710     -0.0608
     5         C         -1.1894      0.2043     -0.0546
     6         C          0.1133      0.7053      0.0116
     7         C          0.3516      2.1775      0.0023
     8         H          2.2083      0.2034      0.1208
     9         H          1.8117     -2.2416      0.1106
    10         H         -0.5046     -3.1263     -0.0061
    11         H         -2.4252     -1.5573     -0.1120
    12         H         -2.0330      0.8884     -0.1019
    13         H          0.4676      2.5456     -1.0290
    14         H          1.2622      2.4564      0.5500
    15         H         -0.4781      2.7377      0.4547

 General Reference for PM7:
 "Optimization of Parameters for Semiempirical Methods VI: More Modifications to the 
 NDDO Approximations and Re-optimization of Parameters", J. J. P. Stewart, J. Mol. Mod., 1:32, 19 (2013)
 https://link.springer.com/article/10.1007/s00894-012-1667-x

           Empirical Formula: C7 H8  =    15 atoms



      MOLECULAR POINT GROUP   :   Cs  


 SINGLET STATE CALCULATION


      RHF CALCULATION, NO. OF DOUBLY OCCUPIED LEVELS = 18



          HEAT OF FORMATION =      13.196203 KCALS/MOLE


          CARTESIAN COORDINATE DERIVATIVES

   NUMBER  ATOM         X            Y            Z

     1       C     -0.002127     0.015891    -0.006990
     2       C     -0.002759     0.001959     0.001675
     3       C      0.007938    -0.006433     0.001349
     4       C      0.003838     0.013669    -0.001629
     5       C      0.004112    -0.012286    -0.004668
     6       C     -0.005262    -0.005409    -0.004358
     7       C     -0.002529    -0.007148    -0.001842
     8       H     -0.001995     0.003260    -0.005526
     9       H     -0.002559    -0.001481    -0.000349
    10       H     -0.002299     0.001925     0.011277
    11       H     -0.004390    -0.010746     0.003488
    12       H     -0.008882     0.001009    -0.008774
    13       H      0.016368    -0.000036    -0.002381
    14       H      0.002558     0.007103     0.011093
    15       H     -0.002012    -0.001281     0.007632
 


          GRADIENT NORM =   0.04437

          MOLECULAR WEIGHT =   92.14



          ROTATIONAL CONSTANTS IN CM(-1)

          A =    0.18369577   B =    0.08513289   C =    0.05881519



           PRINCIPAL MOMENTS OF INERTIA IN UNITS OF 10**(-40)*GRAM-CM**2

          A =      152.3865   B =      328.8124   C =      475.9443


          ORIENTATION OF MOLECULE IN FORCE CALCULATION

    NO.       ATOM         X         Y         Z

     1          C      -0.2400   -1.2075   -0.0029
     2          C       1.1528   -1.2075   -0.0029
     3          C       1.8535   -0.0026   -0.0029
     4          C       1.1563    1.2043   -0.0028
     5          C      -0.2365    1.2083   -0.0028
     6          C      -0.9405    0.0014   -0.0034
     7          C      -2.4318    0.0034    0.0127
     8          H      -0.7822   -2.1499   -0.0020
     9          H       1.6948   -2.1512   -0.0031
    10          H       2.9406   -0.0042   -0.0031
    11          H       1.7010    2.1464   -0.0027
    12          H      -0.7760    2.1522   -0.0019
    13          H      -2.8090    0.0016    1.0471
    14          H      -2.8558   -0.8776   -0.4882
    15          H      -2.8535    0.8878   -0.4843


    FIRST DERIVATIVES WILL BE USED IN THE CALCULATION OF SECOND DERIVATIVES

          ESTIMATED TIME TO COMPLETE CALCULATION =        5.62 SECONDS

    FOR POINT-GROUP Cs   THERE ARE   2 UNIQUE SYMMETRY FUNCTIONS.

 STEP:   1 TIME =     0.14 SECS, INTEGRAL =      0.14 TIME LEFT: 172799.83
 STEP:   2 TIME =     0.16 SECS, INTEGRAL =      0.30 TIME LEFT: 172799.66
 STEP:   3 TIME =     0.14 SECS, INTEGRAL =      0.45 TIME LEFT: 172799.52
 STEP:   4 TIME =     0.14 SECS, INTEGRAL =      0.59 TIME LEFT: 172799.38
 STEP:   5 TIME =     0.14 SECS, INTEGRAL =      0.73 TIME LEFT: 172799.24
 STEP:   6 TIME =     0.16 SECS, INTEGRAL =      0.89 TIME LEFT: 172799.08
 STEP:   7 TIME =     0.13 SECS, INTEGRAL =      1.02 TIME LEFT: 172798.95
 STEP:   8 TIME =     0.15 SECS, INTEGRAL =      1.17 TIME LEFT: 172798.80
 STEP:   9 TIME =     0.17 SECS, INTEGRAL =      1.34 TIME LEFT: 172798.62
 STEP:  10                       INTEGRAL =      1.34 TIME LEFT: 172798.62
 STEP:  11                       INTEGRAL =      1.34 TIME LEFT: 172798.62
 STEP:  12                       INTEGRAL =      1.34 TIME LEFT: 172798.62
 STEP:  13                       INTEGRAL =      1.34 TIME LEFT: 172798.62
 STEP:  14                       INTEGRAL =      1.34 TIME LEFT: 172798.62
 STEP:  15                       INTEGRAL =      1.34 TIME LEFT: 172798.62
 STEP:  16 TIME =     0.16 SECS, INTEGRAL =      1.50 TIME LEFT: 172798.47
 STEP:  17 TIME =     0.15 SECS, INTEGRAL =      1.65 TIME LEFT: 172798.32
 STEP:  18 TIME =     0.16 SECS, INTEGRAL =      1.80 TIME LEFT: 172798.16
 STEP:  19 TIME =     0.16 SECS, INTEGRAL =      1.96 TIME LEFT: 172798.01
 STEP:  20 TIME =     0.15 SECS, INTEGRAL =      2.11 TIME LEFT: 172797.86
 STEP:  21 TIME =     0.13 SECS, INTEGRAL =      2.24 TIME LEFT: 172797.73
 STEP:  22 TIME =     0.14 SECS, INTEGRAL =      2.38 TIME LEFT: 172797.59
 STEP:  23 TIME =     0.13 SECS, INTEGRAL =      2.52 TIME LEFT: 172797.45
 STEP:  24 TIME =     0.14 SECS, INTEGRAL =      2.66 TIME LEFT: 172797.31
 STEP:  25 TIME =     0.15 SECS, INTEGRAL =      2.80 TIME LEFT: 172797.16
 STEP:  26 TIME =     0.15 SECS, INTEGRAL =      2.95 TIME LEFT: 172797.02
 STEP:  27 TIME =     0.13 SECS, INTEGRAL =      3.09 TIME LEFT: 172796.88
 STEP:  28 TIME =     0.14 SECS, INTEGRAL =      3.23 TIME LEFT: 172796.74
 STEP:  29 TIME =     0.14 SECS, INTEGRAL =      3.37 TIME LEFT: 172796.60
 STEP:  30 TIME =     0.14 SECS, INTEGRAL =      3.51 TIME LEFT: 172796.46
 STEP:  31                       INTEGRAL =      3.51 TIME LEFT: 172796.46
 STEP:  32                       INTEGRAL =      3.51 TIME LEFT: 172796.46
 STEP:  33                       INTEGRAL =      3.51 TIME LEFT: 172796.46
 STEP:  34                       INTEGRAL =      3.51 TIME LEFT: 172796.46
 STEP:  35                       INTEGRAL =      3.51 TIME LEFT: 172796.46
 STEP:  36                       INTEGRAL =      3.51 TIME LEFT: 172796.46
 STEP:  37 TIME =     0.15 SECS, INTEGRAL =      3.66 TIME LEFT: 172796.31
 STEP:  38 TIME =     0.14 SECS, INTEGRAL =      3.80 TIME LEFT: 172796.17
 STEP:  39 TIME =     0.18 SECS, INTEGRAL =      3.98 TIME LEFT: 172795.99
 STEP:  40 TIME =     0.14 SECS, INTEGRAL =      4.12 TIME LEFT: 172795.85
 STEP:  41 TIME =     0.14 SECS, INTEGRAL =      4.26 TIME LEFT: 172795.71
 STEP:  42 TIME =     0.15 SECS, INTEGRAL =      4.41 TIME LEFT: 172795.56
 STEP:  43                       INTEGRAL =      4.41 TIME LEFT: 172795.56
 STEP:  44                       INTEGRAL =      4.41 TIME LEFT: 172795.56
 STEP:  45                       INTEGRAL =      4.41 TIME LEFT: 172795.56

(To convert to Hartree/Bohr^2, multiply by (10^(-21) x N x a0^2)/(4.184 x 627.51) =  0.0642)


           FORCE MATRIX IN MILLIDYNES/ANGSTROM


                  C  1       C  2       C  3       C  4       C  5       C  6
 ------------------------------------------------------------------------------
     C    1  15.196058
     C    2   6.130681  15.270070
     C    3   2.331649   6.084919  15.274812
     C    4   1.679944   2.401703   6.101848  15.270070
     C    5   2.287826   1.714536   2.318079   6.130681  15.196058
     C    6   5.893988   2.357337   1.676443   2.357310   5.894101  16.347532
     C    7   0.792374   0.094527   0.022751   0.094533   0.792318   3.873860
     H    8   3.478645   0.759427   0.094441   0.013051   0.090328   0.750218
     H    9   0.752449   3.475768   0.748689   0.093409   0.011684   0.097619
     H   10   0.092029   0.753858   3.480977   0.753866   0.092027   0.003037
     H   11   0.011668   0.093448   0.748704   3.475650   0.752529   0.098270
     H   12   0.090268   0.013049   0.094406   0.759441   3.478671   0.750417
     H   13   0.019863   0.012802   0.003049   0.012803   0.019864   0.742595
     H   14   0.028718   0.005959   0.003851   0.010218   0.038903   0.722410
     H   15   0.038932   0.010231   0.003981   0.005858   0.028696   0.721940


                  C  7       H  8       H  9       H 10       H 11       H 12
 ------------------------------------------------------------------------------
     C    7  11.636488
     H    8   0.041129   4.396841
     H    9   0.011697   0.033845   4.384931
     H   10   0.015044   0.007847   0.032798   4.394241
     H   11   0.011779   0.012538   0.008641   0.032866   4.384931
     H   12   0.041322   0.008679   0.012437   0.007800   0.033845   4.396841
     H   13   3.372896   0.008704   0.002006   0.002192   0.002006   0.008690
     H   14   3.412872   0.020704   0.001780   0.001798   0.001935   0.003559
     H   15   3.412920   0.003536   0.001949   0.001831   0.001754   0.020713


                  H 13       H 14       H 15
 ------------------------------------------
     H   13   4.182475
     H   14   0.461747   4.214915
     H   15   0.461403   0.459895   4.214915


          HEAT OF FORMATION =      13.196203 KCALS/MOLE

          ZERO POINT ENERGY      75.969 KCAL/MOL

         NOTE: SYSTEM IS NOT A GROUND STATE, THEREFORE ZERO POINT
         ENERGY IS NOT MEANINGFULL. ZERO POINT ENERGY PRINTED
         DOES NOT INCLUDE THE  1 IMAGINARY FREQUENCIES


           NORMAL COORDINATE ANALYSIS (Total motion = 1 Angstrom)


   Root No.       1         2         3         4         5         6         7         8

                 1 A"      1 A'      2 A"      3 A"      2 A'      3 A'      4 A"      4 A'  

                 -67.0     185.7     350.1     352.9     444.7     525.1     610.2     620.3
  
           1    0.0013   -0.0003    0.0119    0.0141    0.0007   -0.0155   -0.0739    0.0001
           2   -0.0020   -0.0001   -0.0234   -0.0275    0.0011   -0.0484   -0.0668   -0.0012
           3   -0.0120   -0.0580   -0.0392    0.0342   -0.0008    0.0020    0.0001   -0.0331
           4    0.0018   -0.0003    0.0155    0.0181    0.0010   -0.0267   -0.0785   -0.0002
           5    0.0002   -0.0000    0.0025    0.0029    0.0008   -0.0411    0.0759   -0.0013
           6   -0.0120    0.0026    0.0398   -0.0335   -0.0440   -0.0032   -0.0000    0.0299
           7    0.0000   -0.0003    0.0000    0.0000    0.0021   -0.0913    0.0001   -0.0024
           8    0.0008   -0.0000    0.0113    0.0133   -0.0000    0.0001    0.0437    0.0000
           9   -0.0000    0.0627    0.0000    0.0000    0.0551    0.0038    0.0000   -0.0288
          10   -0.0018   -0.0003   -0.0155   -0.0181    0.0009   -0.0266    0.0787   -0.0002
          11    0.0002    0.0000    0.0026    0.0029   -0.0008    0.0412    0.0757    0.0013
          12    0.0120    0.0026   -0.0398    0.0335   -0.0440   -0.0032    0.0000    0.0299
          13   -0.0013   -0.0003   -0.0120   -0.0141    0.0007   -0.0154    0.0737    0.0001
          14   -0.0020    0.0001   -0.0234   -0.0274   -0.0011    0.0485   -0.0670    0.0013
          15    0.0120   -0.0580    0.0392   -0.0342   -0.0008    0.0020   -0.0001   -0.0331
          16   -0.0000   -0.0002   -0.0000   -0.0001   -0.0014    0.0718   -0.0001    0.0018
          17   -0.0036    0.0000   -0.0315   -0.0369   -0.0000   -0.0001   -0.0366   -0.0000
          18    0.0000   -0.0396   -0.0000   -0.0000    0.0757    0.0018   -0.0000    0.0645
          19    0.0000    0.0011    0.0001    0.0001   -0.0033    0.0950   -0.0000    0.0011
          20    0.0037   -0.0000    0.0449    0.0527    0.0000   -0.0001   -0.0174   -0.0000
          21    0.0000    0.0646   -0.0000   -0.0000   -0.0093   -0.0021   -0.0000    0.0049
          22    0.0040   -0.0001    0.0275    0.0318    0.0021   -0.0590   -0.0385   -0.0003
          23   -0.0035   -0.0001   -0.0315   -0.0366    0.0001   -0.0202   -0.0796   -0.0012
          24   -0.0213   -0.0975   -0.1066    0.0914   -0.0511    0.0037   -0.0002   -0.1730
          25    0.0028   -0.0002    0.0309    0.0364    0.0002    0.0133   -0.0411    0.0011
          26    0.0008    0.0000    0.0112    0.0131    0.0003   -0.0156    0.0890   -0.0005
          27   -0.0214    0.0127    0.1077   -0.0911   -0.1448   -0.0113   -0.0002    0.0698
          28    0.0000   -0.0002    0.0000    0.0000    0.0021   -0.0867   -0.0001   -0.0022
          29    0.0026   -0.0000    0.0268    0.0315   -0.0000    0.0001   -0.0589    0.0000
          30   -0.0000    0.1450    0.0000    0.0000    0.1520    0.0106   -0.0000   -0.1218
          31   -0.0028   -0.0002   -0.0309   -0.0363    0.0001    0.0133    0.0414    0.0011
          32    0.0008   -0.0000    0.0113    0.0132   -0.0003    0.0156    0.0888    0.0005
          33    0.0214    0.0127   -0.1077    0.0912   -0.1448   -0.0113    0.0002    0.0698
          34   -0.0040   -0.0001   -0.0275   -0.0319    0.0021   -0.0589    0.0383   -0.0003
          35   -0.0035    0.0002   -0.0314   -0.0365   -0.0001    0.0203   -0.0797    0.0012
          36    0.0213   -0.0975    0.1066   -0.0914   -0.0511    0.0037    0.0001   -0.1730
          37    0.0004    0.0855    0.0001    0.0001   -0.0913    0.0978   -0.0000   -0.0738
          38    0.2942   -0.0001    0.0609    0.0713    0.0001   -0.0001   -0.0162    0.0001
          39    0.0000    0.0967   -0.0000    0.0000   -0.0442    0.0003   -0.0000   -0.0253
          40   -0.0111   -0.0396   -0.0537   -0.0615    0.0379    0.0924   -0.0075    0.0354
          41   -0.1302   -0.0007    0.0781    0.0910    0.0008    0.0010   -0.0166    0.0005
          42    0.2474    0.1013   -0.0098   -0.0118   -0.0483   -0.0037    0.0025   -0.0280
          43    0.0107   -0.0396    0.0539    0.0617    0.0379    0.0924    0.0075    0.0354
          44   -0.1302    0.0008    0.0779    0.0909   -0.0009   -0.0012   -0.0166   -0.0006
          45   -0.2474    0.1013    0.0098    0.0118   -0.0483   -0.0037   -0.0025   -0.0280


   Root No.       9        10        11        12        13        14        15        16

                 5 A'      6 A'      5 A"      7 A'      6 A"      7 A"      8 A'      9 A'  

                 800.6     847.8     898.7     948.2    1017.3    1032.0    1039.1    1050.9
  
           1    0.0010   -0.0416    0.0000    0.0008   -0.0000   -0.0048   -0.0011   -0.0170
           2   -0.0004   -0.0008   -0.0001    0.0008    0.0002    0.0244   -0.0050   -0.0937
           3   -0.0155   -0.0005   -0.0333    0.0355    0.0450    0.0005   -0.0136    0.0044
           4    0.0011   -0.0468    0.0000    0.0009   -0.0001   -0.0009   -0.0002    0.0051
           5   -0.0021    0.0787    0.0000   -0.0014    0.0001    0.0094    0.0012    0.0125
           6   -0.0166   -0.0016   -0.0312   -0.0056   -0.0468    0.0004    0.0405   -0.0052
           7   -0.0023    0.0785    0.0000   -0.0013   -0.0000   -0.0000    0.0023    0.0410
           8    0.0000   -0.0001    0.0001    0.0000   -0.0002   -0.0124    0.0000   -0.0001
           9   -0.0213   -0.0028    0.0000   -0.0363    0.0000    0.0000   -0.0507    0.0054
          10    0.0011   -0.0471    0.0000    0.0009    0.0001    0.0010   -0.0002    0.0051
          11    0.0021   -0.0786    0.0000    0.0014    0.0001    0.0094   -0.0012   -0.0125
          12   -0.0166   -0.0016    0.0312   -0.0056    0.0468   -0.0003    0.0405   -0.0052
          13    0.0010   -0.0416   -0.0000    0.0008    0.0000    0.0048   -0.0011   -0.0167
          14    0.0004    0.0009   -0.0001   -0.0008    0.0002    0.0244    0.0050    0.0937
          15   -0.0155   -0.0005    0.0333    0.0355   -0.0450   -0.0005   -0.0136    0.0044
          16    0.0005    0.0107   -0.0000   -0.0013    0.0000   -0.0000    0.0024    0.0334
          17   -0.0000   -0.0000   -0.0001    0.0000    0.0000   -0.0153   -0.0000   -0.0000
          18    0.0205    0.0053   -0.0000   -0.0061   -0.0000   -0.0000   -0.0118   -0.0049
          19   -0.0018    0.0812   -0.0000   -0.0015    0.0000   -0.0001   -0.0020   -0.0588
          20    0.0000   -0.0001   -0.0004    0.0000    0.0000   -0.0630   -0.0000    0.0001
          21    0.0081   -0.0023   -0.0000   -0.0194   -0.0000   -0.0000    0.0193    0.0023
          22    0.0001   -0.0201   -0.0010    0.0010    0.0013   -0.0064    0.0008    0.0156
          23    0.0001   -0.0097    0.0007    0.0004   -0.0007    0.0221   -0.0055   -0.1023
          24    0.0981   -0.0008    0.2210   -0.1749   -0.1964    0.0006    0.0429   -0.0148
          25    0.0025   -0.0930    0.0002    0.0012   -0.0006   -0.0481    0.0041    0.0948
          26   -0.0011    0.0439    0.0001   -0.0011   -0.0003   -0.0179    0.0034    0.0577
          27    0.1785    0.0160    0.2108    0.0309    0.2081   -0.0013   -0.1614    0.0188
          28   -0.0020    0.0684    0.0000   -0.0011   -0.0000   -0.0000    0.0023    0.0399
          29   -0.0000   -0.0001    0.0002   -0.0000   -0.0004   -0.0186   -0.0000   -0.0001
          30    0.1930    0.0200    0.0000    0.2073    0.0000    0.0000    0.1977   -0.0197
          31    0.0025   -0.0931   -0.0002    0.0012    0.0006    0.0481    0.0041    0.0947
          32    0.0011   -0.0436    0.0001    0.0011   -0.0003   -0.0181   -0.0033   -0.0580
          33    0.1785    0.0160   -0.2108    0.0309   -0.2081    0.0013   -0.1614    0.0187
          34    0.0001   -0.0201    0.0010    0.0010   -0.0013    0.0065    0.0008    0.0159
          35   -0.0002    0.0097    0.0007   -0.0004   -0.0008    0.0221    0.0055    0.1022
          36    0.0981   -0.0008   -0.2210   -0.1749    0.1964   -0.0006    0.0429   -0.0148
          37   -0.0643    0.0850    0.0000    0.1058   -0.0000    0.0001   -0.0952   -0.0636
          38    0.0001   -0.0001    0.0031   -0.0001   -0.0026    0.0875    0.0001    0.0001
          39   -0.0198    0.0045    0.0000    0.0300   -0.0000   -0.0000   -0.0250   -0.0077
          40    0.0270    0.0763   -0.0005   -0.0505   -0.0013   -0.2755    0.0402   -0.0517
          41    0.0015   -0.0016    0.0008   -0.0031   -0.0001    0.0992    0.0034    0.0036
          42   -0.0235   -0.0037   -0.0014    0.0377    0.0014   -0.0035   -0.0313    0.0027
          43    0.0270    0.0763    0.0005   -0.0505    0.0013    0.2758    0.0402   -0.0517
          44   -0.0016    0.0014    0.0008    0.0033   -0.0001    0.0984   -0.0035   -0.0035
          45   -0.0235   -0.0037    0.0014    0.0377   -0.0014    0.0035   -0.0313    0.0027


   Root No.      17        18        19        20        21        22        23        24

                10 A'      8 A"     11 A'      9 A"     12 A'     10 A"     13 A'     11 A"  

                1080.3    1179.8    1183.7    1216.6    1268.9    1273.5    1284.0    1334.2
  
           1   -0.0006    0.0136   -0.0152   -0.0483    0.0008    0.0002   -0.0016   -0.0495
           2   -0.0046   -0.0213   -0.0090   -0.0049   -0.0089   -0.0013    0.0025    0.0214
           3   -0.0263    0.0002    0.0003    0.0001   -0.0001    0.0004    0.0002    0.0000
           4    0.0013   -0.0155    0.0079    0.0296   -0.0003   -0.0006    0.0004    0.0299
           5   -0.0008   -0.0244   -0.0389   -0.0059   -0.0082    0.0008    0.0004    0.0068
           6    0.0142   -0.0000   -0.0001   -0.0000    0.0000   -0.0001   -0.0001   -0.0000
           7    0.0023    0.0001    0.0559   -0.0000   -0.0003   -0.0000    0.0035   -0.0001
           8   -0.0000    0.0368   -0.0001   -0.0054    0.0000    0.0000   -0.0000   -0.0488
           9   -0.0099    0.0000    0.0000   -0.0000    0.0000   -0.0000    0.0000   -0.0000
          10    0.0013    0.0154    0.0080   -0.0296   -0.0003    0.0006    0.0004   -0.0299
          11    0.0008   -0.0244    0.0389   -0.0059    0.0082    0.0008   -0.0004    0.0068
          12    0.0142    0.0000   -0.0001    0.0000    0.0000    0.0001   -0.0001    0.0000
          13   -0.0006   -0.0137   -0.0152    0.0483    0.0008   -0.0002   -0.0016    0.0495
          14    0.0046   -0.0213    0.0090   -0.0051    0.0089   -0.0013   -0.0025    0.0212
          15   -0.0263   -0.0002    0.0003   -0.0001   -0.0001   -0.0004    0.0002   -0.0000
          16    0.0004    0.0001    0.0160   -0.0000   -0.0071    0.0000   -0.0003   -0.0000
          17   -0.0000    0.0369   -0.0000   -0.0069    0.0000    0.0002   -0.0000   -0.0136
          18    0.0537    0.0000   -0.0004   -0.0000   -0.0008    0.0000   -0.0030   -0.0000
          19   -0.0058   -0.0000   -0.0097   -0.0000    0.0042   -0.0001    0.0094   -0.0000
          20    0.0000   -0.0137    0.0000   -0.0013   -0.0000   -0.0362   -0.0000   -0.0037
          21   -0.0497   -0.0000    0.0020    0.0000   -0.0090    0.0000   -0.0251    0.0000
          22   -0.0018   -0.1541   -0.1583   -0.1076    0.1621    0.0072   -0.0716    0.0361
          23   -0.0032    0.0768    0.0718    0.0329   -0.1018   -0.0060    0.0429   -0.0249
          24    0.0965   -0.0015   -0.0019   -0.0005    0.0016   -0.0034    0.0003    0.0001
          25    0.0064    0.1439   -0.1381   -0.0331   -0.1439   -0.0227    0.0544    0.2332
          26    0.0019    0.0700   -0.1199   -0.0361   -0.0914   -0.0121    0.0319    0.1244
          27   -0.0397    0.0001    0.0002    0.0002   -0.0002   -0.0002   -0.0002    0.0000
          28    0.0022    0.0000    0.0503    0.0006   -0.0015    0.0000    0.0035   -0.0001
          29   -0.0000    0.0067   -0.0001    0.4632    0.0000    0.0253   -0.0000   -0.0960
          30    0.0281    0.0000    0.0000    0.0000    0.0000   -0.0000    0.0002   -0.0000
          31    0.0064   -0.1437   -0.1377    0.0330   -0.1437    0.0227    0.0543   -0.2329
          32   -0.0019    0.0704    0.1202   -0.0362    0.0918   -0.0121   -0.0320    0.1250
          33   -0.0397   -0.0001    0.0002   -0.0002   -0.0002    0.0002   -0.0002   -0.0000
          34   -0.0017    0.1543   -0.1585    0.1077    0.1624   -0.0072   -0.0717   -0.0362
          35    0.0032    0.0763   -0.0713    0.0326    0.1014   -0.0060   -0.0427   -0.0248
          36    0.0965    0.0015   -0.0019    0.0005    0.0016    0.0034    0.0003   -0.0001
          37    0.2263    0.0000   -0.0045   -0.0000   -0.0447    0.0005   -0.1560    0.0000
          38   -0.0003    0.0325    0.0000   -0.0204    0.0001    0.3823    0.0002    0.0186
          39    0.0603   -0.0000    0.0006   -0.0000   -0.0216    0.0000   -0.0729    0.0000
          40   -0.1086   -0.0457   -0.0110   -0.0018    0.0184    0.1271    0.0328    0.0106
          41   -0.0085    0.0203    0.0093   -0.0073   -0.0495    0.0340   -0.1349   -0.0026
          42    0.0781   -0.0064   -0.0101    0.0081    0.0687   -0.2007    0.2024   -0.0130
          43   -0.1086    0.0457   -0.0110    0.0018    0.0185   -0.1270    0.0331   -0.0106
          44    0.0089    0.0202   -0.0093   -0.0073    0.0494    0.0343    0.1348   -0.0025
          45    0.0781    0.0064   -0.0101   -0.0081    0.0687    0.2007    0.2024    0.0130


   Root No.      25        26        27        28        29        30        31        32

                14 A'     12 A"     15 A'     13 A"     16 A'     14 A"     17 A'     18 A'  

                1356.1    1373.2    1393.2    1539.8    1579.8    1705.6    1709.8    2669.2
  
           1    0.0423   -0.0024   -0.0107   -0.0468   -0.0260    0.0416    0.1390   -0.0001
           2    0.0095   -0.0004    0.0023   -0.0236    0.0465   -0.0876   -0.0426    0.0002
           3    0.0001    0.0001    0.0000    0.0000    0.0000    0.0000   -0.0000   -0.0001
           4   -0.0208    0.0358    0.0025    0.0518   -0.0425    0.0422   -0.1377    0.0001
           5    0.0496    0.0218   -0.0105   -0.0232   -0.0433    0.0879   -0.0428   -0.0000
           6   -0.0000   -0.0001   -0.0000    0.0000    0.0000    0.0000    0.0000   -0.0000
           7   -0.0433   -0.0000    0.0096    0.0001    0.0450   -0.0002    0.0649    0.0000
           8    0.0001   -0.0025   -0.0000    0.0728   -0.0001   -0.1598   -0.0001    0.0000
           9    0.0000   -0.0000   -0.0000    0.0000   -0.0000   -0.0000   -0.0000    0.0000
          10   -0.0210   -0.0357    0.0026   -0.0519   -0.0423   -0.0419   -0.1376    0.0001
          11   -0.0496    0.0219    0.0105   -0.0231    0.0434    0.0880    0.0432    0.0000
          12   -0.0000    0.0001   -0.0000   -0.0000    0.0000    0.0000    0.0000   -0.0000
          13    0.0423    0.0024   -0.0108    0.0468   -0.0261   -0.0418    0.1391   -0.0001
          14   -0.0096   -0.0004   -0.0023   -0.0237   -0.0464   -0.0875    0.0422   -0.0002
          15    0.0001   -0.0001    0.0000   -0.0000   -0.0000   -0.0001   -0.0000   -0.0001
          16    0.1085   -0.0001   -0.0117    0.0001    0.0804    0.0002   -0.0824    0.0009
          17   -0.0002   -0.0422    0.0000    0.0678   -0.0001    0.1636    0.0001   -0.0000
          18   -0.0008   -0.0000   -0.0012    0.0000   -0.0001    0.0000    0.0001   -0.0028
          19   -0.0740    0.0000   -0.0483   -0.0000   -0.0184   -0.0000    0.0078   -0.0009
          20    0.0001    0.0077    0.0001   -0.0107    0.0000   -0.0123   -0.0000   -0.0000
          21   -0.0025    0.0000   -0.0019   -0.0000   -0.0002   -0.0000    0.0004   -0.0487
          22   -0.0486   -0.1928    0.0080    0.0592    0.1169   -0.0250   -0.0272   -0.0007
          23    0.0633    0.1090   -0.0096   -0.0720   -0.0424   -0.0118    0.0322   -0.0012
          24   -0.0008   -0.0010   -0.0008    0.0004    0.0002    0.0002   -0.0000    0.0002
          25   -0.1439   -0.0639    0.0346   -0.0605    0.1010   -0.0301    0.0228   -0.0005
          26   -0.0255   -0.0355    0.0089   -0.0756    0.0447    0.0104    0.0278    0.0009
          27   -0.0000    0.0001    0.0000   -0.0000   -0.0001   -0.0000   -0.0000    0.0000
          28   -0.0426   -0.0003    0.0095   -0.0002    0.0326    0.0001    0.0266   -0.0002
          29    0.0001   -0.1815   -0.0000   -0.1692   -0.0000    0.0381   -0.0000    0.0000
          30   -0.0000   -0.0000    0.0001   -0.0000   -0.0001    0.0000    0.0001    0.0001
          31   -0.1438    0.0638    0.0346    0.0603    0.1009    0.0301    0.0228   -0.0005
          32    0.0259   -0.0357   -0.0090   -0.0758   -0.0450    0.0103   -0.0278   -0.0009
          33   -0.0000   -0.0001    0.0001    0.0000   -0.0001    0.0000   -0.0000    0.0000
          34   -0.0488    0.1931    0.0080   -0.0594    0.1170    0.0250   -0.0273   -0.0007
          35   -0.0631    0.1085    0.0095   -0.0719    0.0420   -0.0118   -0.0321    0.0012
          36   -0.0008    0.0010   -0.0008   -0.0004    0.0002   -0.0002   -0.0000    0.0002
          37   -0.0018   -0.0000    0.2036    0.0000   -0.0347    0.0000    0.0218   -0.1898
          38   -0.0000   -0.0054   -0.0003    0.0074    0.0001    0.0076   -0.0000    0.0002
          39    0.0085    0.0000    0.0886   -0.0000   -0.0177   -0.0000    0.0196    0.4517
          40    0.0126    0.0384    0.2488   -0.0345   -0.0393   -0.0484    0.0203    0.0966
          41   -0.0330   -0.0151   -0.1247    0.0125    0.0160    0.0250   -0.0121    0.1877
          42    0.0151   -0.0042   -0.0253    0.0024    0.0102    0.0096   -0.0128    0.0816
          43    0.0127   -0.0384    0.2491    0.0345   -0.0394    0.0485    0.0203    0.0960
          44    0.0330   -0.0150    0.1241    0.0124   -0.0159    0.0249    0.0121   -0.1880
          45    0.0151    0.0042   -0.0253   -0.0024    0.0101   -0.0096   -0.0128    0.0816


   Root No.      33        34        35        36        37        38        39

                15 A"     19 A'     16 A"     20 A'     17 A"     21 A'     22 A'  

                2675.3    2752.4    2758.2    2763.6    2765.8    2773.8    2780.6
  
           1    0.0000    0.0066    0.0083   -0.0084   -0.0095    0.0040    0.0020
           2    0.0015    0.0080    0.0102   -0.0165   -0.0181    0.0080    0.0055
           3   -0.0000   -0.0000   -0.0000    0.0000    0.0000   -0.0000   -0.0000
           4   -0.0001    0.0075    0.0115   -0.0032    0.0054   -0.0062   -0.0023
           5   -0.0001   -0.0147   -0.0165   -0.0025   -0.0127    0.0103    0.0044
           6   -0.0000   -0.0000   -0.0000   -0.0000    0.0000    0.0000   -0.0000
           7    0.0000   -0.0139   -0.0000   -0.0246   -0.0000   -0.0148   -0.0052
           8    0.0002    0.0000   -0.0043    0.0000   -0.0013    0.0000    0.0000
           9   -0.0000    0.0000   -0.0000    0.0000   -0.0000    0.0000   -0.0000
          10    0.0001    0.0076   -0.0115   -0.0031   -0.0054   -0.0063   -0.0023
          11   -0.0001    0.0147   -0.0165    0.0025   -0.0127   -0.0102   -0.0044
          12   -0.0000   -0.0000    0.0000    0.0000   -0.0000   -0.0000    0.0000
          13   -0.0000    0.0066   -0.0082   -0.0084    0.0095    0.0040    0.0020
          14    0.0015   -0.0080    0.0102    0.0165   -0.0181   -0.0080   -0.0055
          15    0.0000   -0.0000    0.0000    0.0000   -0.0000   -0.0000    0.0000
          16   -0.0000   -0.0003    0.0000   -0.0002   -0.0000   -0.0010    0.0052
          17   -0.0037    0.0000    0.0034    0.0000   -0.0031    0.0000   -0.0000
          18    0.0000    0.0000    0.0000   -0.0000   -0.0000    0.0000   -0.0000
          19   -0.0001   -0.0006    0.0000    0.0020   -0.0000   -0.0057    0.0156
          20   -0.0525    0.0000    0.0008   -0.0000   -0.0011    0.0000   -0.0000
          21    0.0000    0.0000   -0.0000    0.0000   -0.0000   -0.0003    0.0007
          22   -0.0080   -0.0674   -0.0896    0.1240    0.1362   -0.0547   -0.0353
          23   -0.0121   -0.1182   -0.1575    0.2151    0.2376   -0.0948   -0.0623
          24    0.0001    0.0001    0.0001   -0.0002   -0.0002    0.0001    0.0000
          25    0.0002   -0.1117   -0.1367   -0.0051   -0.0900    0.0746    0.0305
          26    0.0001    0.1937    0.2388    0.0073    0.1562   -0.1297   -0.0530
          27   -0.0000    0.0000    0.0000   -0.0000    0.0000   -0.0000   -0.0000
          28   -0.0000    0.1908   -0.0000    0.3368   -0.0000    0.1865    0.0634
          29   -0.0000   -0.0003   -0.0010   -0.0005    0.0000   -0.0003   -0.0001
          30   -0.0000   -0.0000    0.0000   -0.0001    0.0000   -0.0000   -0.0000
          31   -0.0002   -0.1122    0.1374   -0.0051    0.0904    0.0750    0.0306
          32    0.0001   -0.1934    0.2384   -0.0073    0.1559    0.1295    0.0529
          33   -0.0000    0.0000   -0.0000    0.0000   -0.0000   -0.0000    0.0000
          34    0.0080   -0.0671    0.0892    0.1234   -0.1356   -0.0545   -0.0351
          35   -0.0121    0.1184   -0.1577   -0.2154    0.2380    0.0949    0.0624
          36   -0.0001    0.0001   -0.0001   -0.0002    0.0002    0.0001    0.0001
          37   -0.0000    0.0028    0.0000   -0.0086   -0.0000    0.0248   -0.0674
          38   -0.0269   -0.0000    0.0001    0.0000   -0.0001   -0.0000    0.0001
          39    0.0000   -0.0073   -0.0000    0.0240   -0.0000   -0.0690    0.1852
          40    0.1892    0.0024   -0.0028   -0.0096    0.0042    0.0301   -0.0823
          41    0.3409    0.0053   -0.0042   -0.0208    0.0066    0.0638   -0.1711
          42    0.2084    0.0032   -0.0025   -0.0120    0.0039    0.0362   -0.0969
          43   -0.1883    0.0024    0.0028   -0.0095   -0.0042    0.0300   -0.0819
          44    0.3414   -0.0053   -0.0043    0.0208    0.0067   -0.0639    0.1714
          45   -0.2083    0.0032    0.0025   -0.0119   -0.0039    0.0362   -0.0968


           MASS-WEIGHTED COORDINATE ANALYSIS (NORMAL COORDINATES)


   Root No.       1         2         3         4         5         6         7         8

                 1 A"      1 A'      2 A"      3 A"      2 A'      3 A'      4 A"      4 A'  

                 -67.0     185.7     350.1     352.9     444.7     525.1     610.2     620.3
  
           1    0.0089   -0.0017    0.0902    0.1063    0.0050   -0.0817   -0.3286    0.0005
           2   -0.0135   -0.0004   -0.1770   -0.2079    0.0076   -0.2546   -0.2970   -0.0096
           3   -0.0822   -0.3809   -0.2965    0.2587   -0.0054    0.0103    0.0003   -0.2540
           4    0.0127   -0.0017    0.1171    0.1370    0.0067   -0.1403   -0.3493   -0.0014
           5    0.0016   -0.0000    0.0190    0.0217    0.0056   -0.2160    0.3377   -0.0100
           6   -0.0823    0.0171    0.3013   -0.2532   -0.3100   -0.0169   -0.0001    0.2298
           7    0.0000   -0.0017    0.0001    0.0001    0.0151   -0.4804    0.0003   -0.0181
           8    0.0052   -0.0000    0.0854    0.1006   -0.0000    0.0007    0.1945    0.0000
           9   -0.0000    0.4117    0.0000    0.0000    0.3883    0.0198    0.0000   -0.2211
          10   -0.0127   -0.0017   -0.1171   -0.1370    0.0067   -0.1397    0.3502   -0.0014
          11    0.0016    0.0000    0.0194    0.0221   -0.0056    0.2164    0.3367    0.0100
          12    0.0823    0.0172   -0.3013    0.2532   -0.3100   -0.0169    0.0001    0.2298
          13   -0.0089   -0.0017   -0.0907   -0.1069    0.0049   -0.0810    0.3278    0.0005
          14   -0.0135    0.0005   -0.1768   -0.2076   -0.0077    0.2548   -0.2980    0.0096
          15    0.0822   -0.3808    0.2965   -0.2587   -0.0054    0.0103   -0.0003   -0.2540
          16   -0.0000   -0.0015   -0.0003   -0.0004   -0.0100    0.3774   -0.0002    0.0139
          17   -0.0249    0.0000   -0.2385   -0.2790   -0.0000   -0.0005   -0.1629   -0.0000
          18    0.0000   -0.2601   -0.0000   -0.0000    0.5333    0.0095   -0.0000    0.4957
          19    0.0000    0.0070    0.0005    0.0006   -0.0231    0.4996   -0.0001    0.0084
          20    0.0257   -0.0000    0.3394    0.3990    0.0000   -0.0007   -0.0775   -0.0000
          21    0.0000    0.4244   -0.0000   -0.0000   -0.0656   -0.0109   -0.0000    0.0377
          22    0.0080   -0.0003    0.0602    0.0698    0.0042   -0.0898   -0.0496   -0.0006
          23   -0.0071   -0.0003   -0.0690   -0.0801    0.0003   -0.0307   -0.1026   -0.0026
          24   -0.0424   -0.1854   -0.2337    0.2002   -0.1043    0.0057   -0.0002   -0.3849
          25    0.0056   -0.0004    0.0678    0.0797    0.0003    0.0202   -0.0530    0.0024
          26    0.0015    0.0000    0.0245    0.0288    0.0006   -0.0238    0.1146   -0.0011
          27   -0.0425    0.0241    0.2360   -0.1997   -0.2956   -0.0173   -0.0003    0.1553
          28    0.0000   -0.0005    0.0001    0.0001    0.0043   -0.1320   -0.0001   -0.0049
          29    0.0051   -0.0000    0.0587    0.0690   -0.0000    0.0002   -0.0759    0.0000
          30   -0.0000    0.2759    0.0000    0.0000    0.3101    0.0161   -0.0000   -0.2710
          31   -0.0056   -0.0004   -0.0678   -0.0796    0.0003    0.0203    0.0533    0.0024
          32    0.0016   -0.0000    0.0247    0.0290   -0.0006    0.0237    0.1145    0.0011
          33    0.0425    0.0242   -0.2360    0.1997   -0.2956   -0.0173    0.0003    0.1553
          34   -0.0080   -0.0003   -0.0604   -0.0700    0.0042   -0.0898    0.0493   -0.0006
          35   -0.0070    0.0003   -0.0688   -0.0799   -0.0003    0.0309   -0.1027    0.0026
          36    0.0424   -0.1854    0.2337   -0.2003   -0.1043    0.0057    0.0002   -0.3849
          37    0.0008    0.1627    0.0002    0.0002   -0.1863    0.1490   -0.0000   -0.1642
          38    0.5856   -0.0002    0.1334    0.1562    0.0003   -0.0002   -0.0208    0.0002
          39    0.0000    0.1840   -0.0000    0.0000   -0.0902    0.0005   -0.0000   -0.0564
          40   -0.0221   -0.0753   -0.1176   -0.1347    0.0774    0.1408   -0.0097    0.0788
          41   -0.2592   -0.0012    0.1711    0.1995    0.0017    0.0015   -0.0214    0.0011
          42    0.4925    0.1928   -0.0215   -0.0259   -0.0986   -0.0056    0.0032   -0.0622
          43    0.0214   -0.0753    0.1181    0.1353    0.0774    0.1408    0.0096    0.0788
          44   -0.2592    0.0014    0.1707    0.1991   -0.0019   -0.0018   -0.0214   -0.0013
          45   -0.4925    0.1928    0.0215    0.0259   -0.0986   -0.0056   -0.0032   -0.0622


   Root No.       9        10        11        12        13        14        15        16

                 5 A'      6 A'      5 A"      7 A'      6 A"      7 A"      8 A'      9 A'  

                 800.6     847.8     898.7     948.2    1017.3    1032.0    1039.1    1050.9
  
           1    0.0093   -0.2160    0.0003    0.0062   -0.0003   -0.0325   -0.0086   -0.0984
           2   -0.0035   -0.0042   -0.0007    0.0066    0.0015    0.1668   -0.0394   -0.5425
           3   -0.1375   -0.0029   -0.2366    0.2905    0.3023    0.0033   -0.1076    0.0253
           4    0.0095   -0.2433    0.0000    0.0076   -0.0004   -0.0064   -0.0016    0.0297
           5   -0.0187    0.4087    0.0001   -0.0114    0.0004    0.0646    0.0099    0.0723
           6   -0.1478   -0.0081   -0.2217   -0.0458   -0.3144    0.0025    0.3200   -0.0304
           7   -0.0205    0.4080    0.0000   -0.0108   -0.0000   -0.0001    0.0184    0.2372
           8    0.0000   -0.0006    0.0009    0.0000   -0.0013   -0.0845    0.0000   -0.0003
           9   -0.1894   -0.0143    0.0000   -0.2975    0.0000    0.0001   -0.4003    0.0315
          10    0.0095   -0.2445    0.0000    0.0077    0.0004    0.0066   -0.0016    0.0295
          11    0.0187   -0.4081    0.0001    0.0114    0.0004    0.0646   -0.0099   -0.0724
          12   -0.1478   -0.0081    0.2217   -0.0458    0.3144   -0.0024    0.3200   -0.0304
          13    0.0093   -0.2160   -0.0003    0.0062    0.0003    0.0330   -0.0085   -0.0969
          14    0.0034    0.0048   -0.0007   -0.0067    0.0016    0.1667    0.0394    0.5428
          15   -0.1375   -0.0029    0.2366    0.2905   -0.3023   -0.0033   -0.1076    0.0253
          16    0.0045    0.0553   -0.0000   -0.0106    0.0000   -0.0001    0.0193    0.1935
          17   -0.0000   -0.0001   -0.0009    0.0000    0.0002   -0.1048   -0.0000   -0.0003
          18    0.1822    0.0278   -0.0000   -0.0503   -0.0000   -0.0000   -0.0928   -0.0281
          19   -0.0163    0.4216   -0.0000   -0.0119    0.0000   -0.0006   -0.0155   -0.3404
          20    0.0000   -0.0006   -0.0026    0.0000    0.0002   -0.4310   -0.0000    0.0005
          21    0.0715   -0.0122   -0.0000   -0.1586   -0.0000   -0.0001    0.1524    0.0136
          22    0.0003   -0.0302   -0.0020    0.0025    0.0025   -0.0127    0.0018    0.0263
          23    0.0004   -0.0146    0.0014    0.0010   -0.0014    0.0438   -0.0127   -0.1716
          24    0.2523   -0.0013    0.4547   -0.4149   -0.3820    0.0012    0.0981   -0.0248
          25    0.0064   -0.1399    0.0004    0.0029   -0.0011   -0.0954    0.0093    0.1591
          26   -0.0028    0.0660    0.0002   -0.0025   -0.0005   -0.0355    0.0077    0.0969
          27    0.4592    0.0241    0.4337    0.0733    0.4047   -0.0025   -0.3693    0.0315
          28   -0.0051    0.1029    0.0000   -0.0027   -0.0000   -0.0001    0.0053    0.0669
          29   -0.0000   -0.0001    0.0004   -0.0000   -0.0009   -0.0369   -0.0000   -0.0001
          30    0.4965    0.0301    0.0000    0.4918    0.0000    0.0000    0.4525   -0.0330
          31    0.0064   -0.1401   -0.0004    0.0029    0.0011    0.0953    0.0093    0.1589
          32    0.0028   -0.0656    0.0003    0.0025   -0.0005   -0.0358   -0.0077   -0.0973
          33    0.4592    0.0241   -0.4337    0.0733   -0.4047    0.0025   -0.3693    0.0315
          34    0.0003   -0.0302    0.0020    0.0025   -0.0025    0.0128    0.0018    0.0267
          35   -0.0004    0.0147    0.0014   -0.0010   -0.0015    0.0437    0.0127    0.1716
          36    0.2523   -0.0013   -0.4547   -0.4149    0.3820   -0.0012    0.0981   -0.0248
          37   -0.1655    0.1279    0.0000    0.2510   -0.0000    0.0002   -0.2179   -0.1067
          38    0.0002   -0.0002    0.0063   -0.0003   -0.0051    0.1734    0.0003    0.0002
          39   -0.0509    0.0067    0.0000    0.0712   -0.0000   -0.0000   -0.0571   -0.0129
          40    0.0696    0.1148   -0.0009   -0.1198   -0.0025   -0.5460    0.0920   -0.0868
          41    0.0039   -0.0024    0.0016   -0.0074   -0.0003    0.1966    0.0078    0.0061
          42   -0.0605   -0.0056   -0.0029    0.0895    0.0028   -0.0070   -0.0717    0.0046
          43    0.0696    0.1148    0.0010   -0.1198    0.0025    0.5465    0.0920   -0.0868
          44   -0.0041    0.0021    0.0016    0.0078   -0.0003    0.1951   -0.0080   -0.0058
          45   -0.0605   -0.0056    0.0029    0.0895   -0.0028    0.0069   -0.0717    0.0045


   Root No.      17        18        19        20        21        22        23        24

                10 A'      8 A"     11 A'      9 A"     12 A'     10 A"     13 A'     11 A"  

                1080.3    1179.8    1183.7    1216.6    1268.9    1273.5    1284.0    1334.2
  
           1   -0.0047    0.1091   -0.1130   -0.2931    0.0071    0.0015   -0.0127   -0.3251
           2   -0.0353   -0.1705   -0.0665   -0.0299   -0.0784   -0.0082    0.0204    0.1403
           3   -0.2025    0.0019    0.0021    0.0006   -0.0008    0.0027    0.0018    0.0003
           4    0.0103   -0.1237    0.0587    0.1795   -0.0029   -0.0037    0.0031    0.1965
           5   -0.0060   -0.1947   -0.2882   -0.0360   -0.0721    0.0054    0.0034    0.0445
           6    0.1093   -0.0003   -0.0007   -0.0003    0.0001   -0.0009   -0.0009   -0.0001
           7    0.0173    0.0004    0.4143   -0.0000   -0.0030   -0.0000    0.0285   -0.0004
           8   -0.0001    0.2940   -0.0006   -0.0325    0.0000    0.0000   -0.0000   -0.3205
           9   -0.0762    0.0000    0.0000   -0.0000    0.0000   -0.0000    0.0000   -0.0000
          10    0.0103    0.1231    0.0595   -0.1796   -0.0027    0.0037    0.0031   -0.1964
          11    0.0059   -0.1951    0.2880   -0.0355    0.0721    0.0054   -0.0033    0.0450
          12    0.1093    0.0003   -0.0006    0.0003    0.0001    0.0009   -0.0009    0.0001
          13   -0.0046   -0.1095   -0.1128    0.2930    0.0073   -0.0015   -0.0128    0.3254
          14    0.0353   -0.1701    0.0669   -0.0307    0.0784   -0.0082   -0.0204    0.1394
          15   -0.2025   -0.0019    0.0021   -0.0006   -0.0008   -0.0027    0.0018   -0.0003
          16    0.0027    0.0004    0.1187   -0.0001   -0.0628    0.0000   -0.0028   -0.0001
          17   -0.0000    0.2952   -0.0002   -0.0418    0.0001    0.0012   -0.0000   -0.0892
          18    0.4138    0.0000   -0.0033   -0.0000   -0.0070    0.0000   -0.0241   -0.0000
          19   -0.0447   -0.0002   -0.0716   -0.0000    0.0367   -0.0003    0.0761   -0.0000
          20    0.0001   -0.1092    0.0001   -0.0077   -0.0001   -0.2367   -0.0001   -0.0242
          21   -0.3829   -0.0000    0.0147    0.0000   -0.0791    0.0000   -0.2039    0.0000
          22   -0.0039   -0.3571   -0.3399   -0.1890    0.4127    0.0136   -0.1683    0.0688
          23   -0.0070    0.1779    0.1541    0.0577   -0.2593   -0.0114    0.1008   -0.0473
          24    0.2155   -0.0036   -0.0042   -0.0008    0.0040   -0.0065    0.0007    0.0003
          25    0.0143    0.3333   -0.2965   -0.0582   -0.3666   -0.0430    0.1279    0.4439
          26    0.0043    0.1622   -0.2574   -0.0634   -0.2328   -0.0228    0.0749    0.2367
          27   -0.0886    0.0002    0.0005    0.0003   -0.0005   -0.0003   -0.0005    0.0001
          28    0.0049    0.0000    0.1081    0.0011   -0.0038    0.0001    0.0082   -0.0003
          29   -0.0000    0.0155   -0.0002    0.8134    0.0000    0.0478   -0.0000   -0.1828
          30    0.0627    0.0000    0.0001    0.0000    0.0001   -0.0000    0.0005   -0.0000
          31    0.0143   -0.3328   -0.2958    0.0580   -0.3659    0.0429    0.1276   -0.4432
          32   -0.0043    0.1631    0.2582   -0.0636    0.2339   -0.0230   -0.0753    0.2380
          33   -0.0886   -0.0002    0.0005   -0.0003   -0.0005    0.0003   -0.0005   -0.0000
          34   -0.0039    0.3576   -0.3404    0.1891    0.4134   -0.0137   -0.1686   -0.0689
          35    0.0070    0.1769   -0.1531    0.0572    0.2581   -0.0113   -0.1004   -0.0471
          36    0.2155    0.0036   -0.0042    0.0008    0.0040    0.0065    0.0007   -0.0003
          37    0.5051    0.0001   -0.0097   -0.0000   -0.1139    0.0010   -0.3667    0.0001
          38   -0.0007    0.0753    0.0000   -0.0359    0.0002    0.7235    0.0005    0.0354
          39    0.1345   -0.0000    0.0013   -0.0000   -0.0551    0.0000   -0.1712    0.0000
          40   -0.2423   -0.1058   -0.0236   -0.0032    0.0468    0.2405    0.0770    0.0201
          41   -0.0191    0.0471    0.0201   -0.0129   -0.1260    0.0644   -0.3170   -0.0049
          42    0.1744   -0.0148   -0.0218    0.0143    0.1748   -0.3798    0.4756   -0.0247
          43   -0.2423    0.1059   -0.0237    0.0032    0.0471   -0.2403    0.0779   -0.0201
          44    0.0198    0.0468   -0.0200   -0.0129    0.1258    0.0650    0.3167   -0.0048
          45    0.1744    0.0148   -0.0218   -0.0143    0.1748    0.3798    0.4756    0.0247


   Root No.      25        26        27        28        29        30        31        32

                14 A'     12 A"     15 A'     13 A"     16 A'     14 A"     17 A'     18 A'  

                1356.1    1373.2    1393.2    1539.8    1579.8    1705.6    1709.8    2669.2
  
           1    0.2302   -0.0182   -0.0750   -0.2817   -0.1579    0.1376    0.4495   -0.0006
           2    0.0517   -0.0028    0.0162   -0.1420    0.2828   -0.2902   -0.1376    0.0012
           3    0.0006    0.0006    0.0001    0.0001    0.0000    0.0001   -0.0000   -0.0005
           4   -0.1133    0.2702    0.0177    0.3119   -0.2583    0.1396   -0.4451    0.0005
           5    0.2702    0.1647   -0.0731   -0.1396   -0.2631    0.2910   -0.1383   -0.0002
           6   -0.0002   -0.0004   -0.0003    0.0001    0.0001    0.0000    0.0000   -0.0001
           7   -0.2357   -0.0000    0.0668    0.0006    0.2737   -0.0007    0.2099    0.0000
           8    0.0003   -0.0187   -0.0001    0.4379   -0.0004   -0.5290   -0.0003    0.0000
           9    0.0001   -0.0000   -0.0000    0.0000   -0.0000   -0.0000   -0.0001    0.0000
          10   -0.1141   -0.2697    0.0179   -0.3123   -0.2576   -0.1388   -0.4447    0.0004
          11   -0.2698    0.1655    0.0730   -0.1387    0.2638    0.2914    0.1395    0.0003
          12   -0.0002    0.0004   -0.0001   -0.0001    0.0001    0.0000    0.0000   -0.0001
          13    0.2300    0.0182   -0.0750    0.2814   -0.1586   -0.1384    0.4499   -0.0006
          14   -0.0524   -0.0029   -0.0160   -0.1428   -0.2824   -0.2898    0.1364   -0.0012
          15    0.0006   -0.0006    0.0003   -0.0001   -0.0000   -0.0002   -0.0000   -0.0004
          16    0.5906   -0.0004   -0.0816    0.0006    0.4892    0.0008   -0.2663    0.0052
          17   -0.0008   -0.3188    0.0001    0.4078   -0.0007    0.5417    0.0004   -0.0000
          18   -0.0041   -0.0000   -0.0083    0.0000   -0.0005    0.0000    0.0004   -0.0159
          19   -0.4031    0.0001   -0.3370   -0.0001   -0.1117   -0.0001    0.0251   -0.0050
          20    0.0005    0.0578    0.0005   -0.0643    0.0002   -0.0409   -0.0000   -0.0000
          21   -0.0138    0.0000   -0.0131   -0.0000   -0.0011   -0.0000    0.0013   -0.2759
          22   -0.0766   -0.4214    0.0161    0.1032    0.2060   -0.0240   -0.0254   -0.0011
          23    0.0998    0.2383   -0.0193   -0.1256   -0.0746   -0.0113    0.0302   -0.0020
          24   -0.0013   -0.0022   -0.0017    0.0008    0.0004    0.0002   -0.0000    0.0004
          25   -0.2269   -0.1396    0.0699   -0.1054    0.1780   -0.0288    0.0214   -0.0008
          26   -0.0401   -0.0776    0.0179   -0.1317    0.0788    0.0100    0.0260    0.0015
          27   -0.0001    0.0002    0.0001   -0.0000   -0.0001   -0.0000   -0.0000    0.0001
          28   -0.0672   -0.0006    0.0192   -0.0004    0.0574    0.0001    0.0249   -0.0003
          29    0.0001   -0.3968   -0.0000   -0.2949   -0.0001    0.0366   -0.0000    0.0000
          30   -0.0001   -0.0000    0.0003   -0.0000   -0.0001    0.0000    0.0001    0.0001
          31   -0.2268    0.1394    0.0699    0.1050    0.1778    0.0289    0.0213   -0.0008
          32    0.0408   -0.0780   -0.0181   -0.1320   -0.0793    0.0099   -0.0261   -0.0014
          33   -0.0001   -0.0002    0.0002    0.0000   -0.0001    0.0000   -0.0000    0.0001
          34   -0.0769    0.4221    0.0161   -0.1036    0.2062    0.0240   -0.0255   -0.0011
          35   -0.0996    0.2371    0.0193   -0.1253    0.0740   -0.0114   -0.0301    0.0020
          36   -0.0013    0.0023   -0.0016   -0.0008    0.0004   -0.0002   -0.0000    0.0004
          37   -0.0028   -0.0000    0.4116    0.0000   -0.0611    0.0000    0.0204   -0.3117
          38   -0.0000   -0.0118   -0.0006    0.0129    0.0001    0.0073   -0.0000    0.0004
          39    0.0134    0.0000    0.1791   -0.0000   -0.0313   -0.0000    0.0184    0.7417
          40    0.0199    0.0839    0.5030   -0.0601   -0.0693   -0.0465    0.0190    0.1586
          41   -0.0520   -0.0330   -0.2522    0.0218    0.0282    0.0240   -0.0114    0.3083
          42    0.0239   -0.0093   -0.0512    0.0042    0.0179    0.0092   -0.0120    0.1340
          43    0.0200   -0.0840    0.5037    0.0602   -0.0694    0.0465    0.0190    0.1577
          44    0.0520   -0.0327    0.2508    0.0216   -0.0280    0.0239    0.0113   -0.3087
          45    0.0239    0.0093   -0.0512   -0.0042    0.0179   -0.0092   -0.0120    0.1340


   Root No.      33        34        35        36        37        38        39

                15 A"     19 A'     16 A"     20 A'     17 A"     21 A'     22 A'  

                2675.3    2752.4    2758.2    2763.6    2765.8    2773.8    2780.6
  
           1    0.0000    0.0528    0.0593   -0.0576   -0.0685    0.0381    0.0176
           2    0.0081    0.0644    0.0730   -0.1128   -0.1303    0.0765    0.0481
           3   -0.0001   -0.0000   -0.0000    0.0001    0.0001   -0.0000   -0.0001
           4   -0.0003    0.0606    0.0824   -0.0216    0.0388   -0.0597   -0.0201
           5   -0.0003   -0.1181   -0.1184   -0.0169   -0.0915    0.0983    0.0385
           6   -0.0000   -0.0000   -0.0000   -0.0000    0.0000    0.0001   -0.0002
           7    0.0000   -0.1118   -0.0000   -0.1680   -0.0000   -0.1422   -0.0455
           8    0.0010    0.0002   -0.0310    0.0002   -0.0096    0.0002    0.0001
           9   -0.0000    0.0000   -0.0000    0.0000   -0.0000    0.0000   -0.0000
          10    0.0003    0.0609   -0.0827   -0.0215   -0.0391   -0.0600   -0.0202
          11   -0.0003    0.1179   -0.1182    0.0170   -0.0914   -0.0981   -0.0384
          12   -0.0000   -0.0000    0.0000    0.0000   -0.0000   -0.0000    0.0001
          13   -0.0000    0.0526   -0.0591   -0.0573    0.0682    0.0379    0.0174
          14    0.0081   -0.0645    0.0731    0.1130   -0.1304   -0.0766   -0.0481
          15    0.0001   -0.0001    0.0001    0.0001   -0.0001   -0.0002    0.0002
          16   -0.0000   -0.0028    0.0000   -0.0012   -0.0000   -0.0097    0.0450
          17   -0.0195    0.0000    0.0242    0.0000   -0.0226    0.0000   -0.0001
          18    0.0000    0.0001    0.0000   -0.0001   -0.0000    0.0002   -0.0002
          19   -0.0004   -0.0046    0.0000    0.0136   -0.0000   -0.0550    0.1358
          20   -0.2778    0.0000    0.0054   -0.0000   -0.0081    0.0001   -0.0002
          21    0.0000    0.0004   -0.0000    0.0001   -0.0000   -0.0029    0.0064
          22   -0.0123   -0.1567   -0.1864    0.2456    0.2842   -0.1519   -0.0891
          23   -0.0185   -0.2749   -0.3274    0.4262    0.4956   -0.2630   -0.1576
          24    0.0002    0.0002    0.0003   -0.0003   -0.0004    0.0002    0.0001
          25    0.0003   -0.2596   -0.2843   -0.0100   -0.1877    0.2070    0.0771
          26    0.0002    0.4505    0.4966    0.0145    0.3258   -0.3600   -0.1340
          27   -0.0000    0.0001    0.0001   -0.0000    0.0000   -0.0000   -0.0001
          28   -0.0000    0.4435   -0.0000    0.6675   -0.0000    0.5176    0.1603
          29   -0.0000   -0.0006   -0.0021   -0.0009    0.0000   -0.0007   -0.0002
          30   -0.0000   -0.0001    0.0000   -0.0001    0.0000   -0.0001   -0.0000
          31   -0.0003   -0.2609    0.2857   -0.0101    0.1886    0.2080    0.0774
          32    0.0002   -0.4497    0.4958   -0.0145    0.3253    0.3595    0.1338
          33   -0.0000    0.0000   -0.0000    0.0000   -0.0000   -0.0000    0.0001
          34    0.0122   -0.1559    0.1855    0.2445   -0.2828   -0.1512   -0.0887
          35   -0.0186    0.2753   -0.3280   -0.4269    0.4964    0.2634    0.1578
          36   -0.0002    0.0003   -0.0003   -0.0004    0.0005    0.0002    0.0002
          37   -0.0001    0.0064    0.0000   -0.0170   -0.0000    0.0687   -0.1703
          38   -0.0412   -0.0000    0.0002    0.0000   -0.0002   -0.0001    0.0002
          39    0.0000   -0.0170   -0.0000    0.0475   -0.0000   -0.1916    0.4682
          40    0.2903    0.0056   -0.0059   -0.0190    0.0087    0.0837   -0.2082
          41    0.5229    0.0124   -0.0088   -0.0413    0.0139    0.1770   -0.4327
          42    0.3196    0.0075   -0.0052   -0.0237    0.0081    0.1005   -0.2450
          43   -0.2888    0.0056    0.0058   -0.0189   -0.0087    0.0832   -0.2070
          44    0.5237   -0.0124   -0.0088    0.0413    0.0139   -0.1772    0.4333
          45   -0.3195    0.0075    0.0052   -0.0237   -0.0081    0.1004   -0.2449


          DESCRIPTION OF VIBRATIONS


 VIBRATION          1    1A"          ATOM PAIR      ENERGY CONTRIBUTION    RADIAL
 FREQUENCY           -66.98         C  7 -- H 13         +33.7% (-99.9%)      0.0%
 TRANSITION DIPOLE   0.0392         C  7 -- H 15         +31.8% (-99.9%)      0.1%
 TRAVEL (Ang.)       0.0000         C  7 -- H 14         +31.8% (-99.9%)      0.0%
 REDUCED MASS        0.3148         C  5 -- C  6          +0.4% (-84.7%)      0.4%
 EFFECTIVE MASS      7.2681
 FORCE CONSTANT     -0.0008

 VIBRATION          2    1A'          ATOM PAIR      ENERGY CONTRIBUTION    RADIAL
 FREQUENCY           185.73         C  6 -- C  7         +21.6% (248.4%)      0.0%
 TRANSITION DIPOLE   0.1740         C  7 -- H 15         +13.8% (198.9%)     31.3%
 TRAVEL (Ang.)       0.5263         C  7 -- H 14         +13.8% (198.9%)     31.7%
 REDUCED MASS        1.3108         C  7 -- H 13         +12.8% (191.0%)     95.0%
 EFFECTIVE MASS     55.2254
 FORCE CONSTANT      0.0266

 VIBRATION          3    2A"          ATOM PAIR      ENERGY CONTRIBUTION    RADIAL
 FREQUENCY           350.14         C  6 -- C  7         +15.1% (133.9%)      0.0%
 TRANSITION DIPOLE   0.1026         C  1 -- C  2         +11.1% (115.1%)      0.2%
 TRAVEL (Ang.)       0.4698         C  4 -- C  5         +11.1% (115.1%)      0.2%
 REDUCED MASS        0.8725         C  5 -- C  6          +8.5% (100.5%)      0.1%
 EFFECTIVE MASS     22.9335
 FORCE CONSTANT      0.0630

 VIBRATION          4    3A"          ATOM PAIR      ENERGY CONTRIBUTION    RADIAL
 FREQUENCY           352.95         C  6 -- C  7         +17.1% (155.8%)      0.0%
 TRANSITION DIPOLE   0.1188         C  4 -- C  5          +9.4% (115.5%)      0.3%
 TRAVEL (Ang.)       0.4565         C  1 -- C  2          +9.4% (115.5%)      0.3%
 REDUCED MASS        0.9167         C  1 -- C  6          +8.6% (110.3%)      0.1%
 EFFECTIVE MASS     24.3395
 FORCE CONSTANT      0.0673

 VIBRATION          5    2A'          ATOM PAIR      ENERGY CONTRIBUTION    RADIAL
 FREQUENCY           444.75         C  6 -- C  7         +14.9% ( 79.7%)      0.0%
 TRANSITION DIPOLE   0.3619         C  3 -- C  4         +14.6% ( 78.9%)      0.0%
 TRAVEL (Ang.)       0.3183         C  2 -- C  3         +14.6% ( 78.9%)      0.0%
 REDUCED MASS        1.4960         C  5 -- C  6         +13.3% ( 75.3%)      0.0%
 EFFECTIVE MASS     13.6303         C  1 -- C  6         +13.3% ( 75.3%)      0.0%
 FORCE CONSTANT      0.1743

 VIBRATION          6    3A'          ATOM PAIR      ENERGY CONTRIBUTION    RADIAL
 FREQUENCY           525.07         C  6 -- C  7          +9.7% (104.3%)     97.6%
 TRANSITION DIPOLE   0.0922         C  3 -- C  4          +9.6% (103.9%)      0.2%
 TRAVEL (Ang.)       0.2623         C  2 -- C  3          +9.6% (103.9%)      0.2%
 REDUCED MASS        1.8660         C  1 -- C  6          +8.9% ( 99.9%)      0.0%
 EFFECTIVE MASS     18.5880
 FORCE CONSTANT      0.3031

 VIBRATION          7    4A"          ATOM PAIR      ENERGY CONTRIBUTION    RADIAL
 FREQUENCY           610.24         C  4 -- C  5         +13.3% (105.3%)      0.1%
 TRANSITION DIPOLE   0.0374         C  1 -- C  2         +13.3% (105.3%)      0.1%
 TRAVEL (Ang.)       0.2197         C  3 -- C  4         +10.5% ( 93.4%)      1.9%
 REDUCED MASS        2.2898         C  2 -- C  3         +10.5% ( 93.4%)      1.9%
 EFFECTIVE MASS     17.8550
 FORCE CONSTANT      0.5024

 VIBRATION          8    4A'          ATOM PAIR      ENERGY CONTRIBUTION    RADIAL
 FREQUENCY           620.28         C  5 -- C  6         +18.9% ( 64.3%)      0.0%
 TRANSITION DIPOLE   0.3875         C  1 -- C  6         +18.9% ( 64.3%)      0.0%
 TRAVEL (Ang.)       0.3339         C  6 -- C  7         +10.9% ( 48.8%)      0.0%
 REDUCED MASS        0.9751         C  4 -- C  5          +7.0% ( 39.1%)      0.0%
 EFFECTIVE MASS      9.3452
 FORCE CONSTANT      0.2210

 VIBRATION          9    5A'          ATOM PAIR      ENERGY CONTRIBUTION    RADIAL
 FREQUENCY           800.65         C  3 -- H 10         +25.0% ( 61.0%)      0.0%
 TRANSITION DIPOLE   0.7841         C  4 -- H 11         +20.3% ( 55.0%)      0.1%
 TRAVEL (Ang.)       0.6331         C  2 -- H  9         +20.3% ( 55.0%)      0.1%
 REDUCED MASS        0.2101         C  1 -- H  8          +7.5% ( 33.5%)      0.0%
 EFFECTIVE MASS      2.1742
 FORCE CONSTANT      0.0794

 VIBRATION         10    6A'          ATOM PAIR      ENERGY CONTRIBUTION    RADIAL
 FREQUENCY           847.83         C  3 -- C  4         +15.3% ( 82.6%)      0.1%
 TRANSITION DIPOLE   0.1380         C  2 -- C  3         +15.3% ( 82.6%)      0.1%
 TRAVEL (Ang.)       0.1995         C  1 -- C  2          +8.8% ( 62.5%)      0.4%
 REDUCED MASS        1.9989         C  4 -- C  5          +8.8% ( 62.5%)      0.4%
 EFFECTIVE MASS     13.9427
 FORCE CONSTANT      0.8466

 VIBRATION         11    5A"          ATOM PAIR      ENERGY CONTRIBUTION    RADIAL
 FREQUENCY           898.72         C  5 -- H 12         +23.2% ( 53.1%)      0.0%
 TRANSITION DIPOLE   0.0045         C  1 -- H  8         +23.2% ( 53.1%)      0.0%
 TRAVEL (Ang.)       0.5079         C  4 -- H 11         +21.2% ( 50.7%)      0.0%
 REDUCED MASS        0.2908         C  2 -- H  9         +21.2% ( 50.7%)      0.0%
 EFFECTIVE MASS      2.3153
 FORCE CONSTANT      0.1384

 VIBRATION         12    7A'          ATOM PAIR      ENERGY CONTRIBUTION    RADIAL
 FREQUENCY           948.17         C  3 -- H 10         +24.5% ( 56.7%)      0.0%
 TRANSITION DIPOLE   0.0707         C  5 -- H 12         +19.0% ( 49.9%)      0.0%
 TRAVEL (Ang.)       0.4227         C  1 -- H  8         +19.0% ( 49.9%)      0.0%
 REDUCED MASS        0.3981         C  7 -- H 13          +9.2% ( 34.8%)     13.0%
 EFFECTIVE MASS      3.2018
 FORCE CONSTANT      0.2109

 VIBRATION         13    6A"          ATOM PAIR      ENERGY CONTRIBUTION    RADIAL
 FREQUENCY          1017.28         C  4 -- H 11         +19.3% ( 47.2%)      0.0%
 TRANSITION DIPOLE   0.0030         C  2 -- H  9         +19.3% ( 47.2%)      0.0%
 TRAVEL (Ang.)       0.3528         C  1 -- H  8         +17.2% ( 44.6%)      0.0%
 REDUCED MASS        0.5324         C  5 -- H 12         +17.2% ( 44.6%)      0.0%
 EFFECTIVE MASS      3.9367
 FORCE CONSTANT      0.3246

 VIBRATION         14    7A"          ATOM PAIR      ENERGY CONTRIBUTION    RADIAL
 FREQUENCY          1032.00         C  7 -- H 15         +30.2% ( 77.9%)     12.2%
 TRANSITION DIPOLE   0.3872         C  7 -- H 14         +30.2% ( 77.9%)     12.1%
 TRAVEL (Ang.)       0.3130         C  7 -- H 13         +11.2% ( 47.4%)      0.0%
 REDUCED MASS        0.6668         C  6 -- C  7          +8.2% ( 40.7%)      0.0%
 EFFECTIVE MASS      4.0880
 FORCE CONSTANT      0.4184

 VIBRATION         15    8A'          ATOM PAIR      ENERGY CONTRIBUTION    RADIAL
 FREQUENCY          1039.11         C  3 -- H 10         +23.3% ( 53.8%)      0.0%
 TRANSITION DIPOLE   0.1991         C  2 -- H  9         +15.5% ( 43.8%)      0.0%
 TRAVEL (Ang.)       0.3143         C  4 -- H 11         +15.5% ( 43.8%)      0.0%
 REDUCED MASS        0.6571         C  2 -- C  3          +9.8% ( 34.9%)      0.0%
 EFFECTIVE MASS      4.6331
 FORCE CONSTANT      0.4180

 VIBRATION         16    9A'          ATOM PAIR      ENERGY CONTRIBUTION    RADIAL
 FREQUENCY          1050.93         C  4 -- C  5         +13.8% ( 64.6%)      4.1%
 TRANSITION DIPOLE   0.3360         C  1 -- C  2         +13.8% ( 64.6%)      4.1%
 TRAVEL (Ang.)       0.1617         C  1 -- C  6         +12.6% ( 61.8%)     27.3%
 REDUCED MASS        2.4535         C  5 -- C  6         +12.6% ( 61.8%)     27.3%
 EFFECTIVE MASS     11.9544         C  5 -- H 12         +10.1% ( 55.2%)     94.6%
 FORCE CONSTANT      1.5965         C  1 -- H  8         +10.1% ( 55.2%)     94.6%

 VIBRATION         17   10A'          ATOM PAIR      ENERGY CONTRIBUTION    RADIAL
 FREQUENCY          1080.34         C  7 -- H 13         +27.9% ( 64.1%)     15.5%
 TRANSITION DIPOLE   0.8091         C  7 -- H 14         +15.0% ( 46.9%)      7.5%
 TRAVEL (Ang.)       0.2866         C  7 -- H 15         +15.0% ( 46.9%)      7.4%
 REDUCED MASS        0.7601         C  6 -- C  7         +14.0% ( 45.5%)      0.2%
 EFFECTIVE MASS      5.0778
 FORCE CONSTANT      0.5227

 VIBRATION         18    8A"          ATOM PAIR      ENERGY CONTRIBUTION    RADIAL
 FREQUENCY          1179.82         C  1 -- H  8         +11.0% ( 50.2%)      1.4%
 TRANSITION DIPOLE   0.2187         C  5 -- H 12         +11.0% ( 50.2%)      1.4%
 TRAVEL (Ang.)       0.3876         C  4 -- H 11         +10.4% ( 49.0%)      2.0%
 REDUCED MASS        0.3804         C  2 -- H  9         +10.4% ( 49.0%)      2.0%
 EFFECTIVE MASS      5.6008
 FORCE CONSTANT      0.3120

 VIBRATION         19   11A'          ATOM PAIR      ENERGY CONTRIBUTION    RADIAL
 FREQUENCY          1183.70         C  2 -- C  3         +16.9% ( 55.9%)     87.3%
 TRANSITION DIPOLE   0.2264         C  3 -- C  4         +16.9% ( 55.9%)     87.3%
 TRAVEL (Ang.)       0.3006         C  2 -- H  9         +11.8% ( 46.7%)     32.6%
 REDUCED MASS        0.6306         C  4 -- H 11         +11.8% ( 46.7%)     32.6%
 EFFECTIVE MASS      6.4167
 FORCE CONSTANT      0.5206

 VIBRATION         20    9A"          ATOM PAIR      ENERGY CONTRIBUTION    RADIAL
 FREQUENCY          1216.61         C  3 -- H 10         +43.2% ( 84.0%)      0.0%
 TRANSITION DIPOLE   0.2382         C  1 -- C  2         +11.3% ( 43.0%)    100.0%
 TRAVEL (Ang.)       0.2915         C  4 -- C  5         +11.3% ( 43.0%)    100.0%
 REDUCED MASS        0.6523         C  1 -- H  8          +6.5% ( 32.6%)     88.3%
 EFFECTIVE MASS      4.0965
 FORCE CONSTANT      0.5689

 VIBRATION         21   12A'          ATOM PAIR      ENERGY CONTRIBUTION    RADIAL
 FREQUENCY          1268.86         C  1 -- H  8         +23.8% ( 48.1%)      1.0%
 TRANSITION DIPOLE   0.2001         C  5 -- H 12         +23.8% ( 48.1%)      1.0%
 TRAVEL (Ang.)       0.5248         C  4 -- H 11         +18.6% ( 42.5%)      1.1%
 REDUCED MASS        0.1929         C  2 -- H  9         +18.6% ( 42.5%)      1.1%
 EFFECTIVE MASS      1.3962
 FORCE CONSTANT      0.1830

 VIBRATION         22   10A"          ATOM PAIR      ENERGY CONTRIBUTION    RADIAL
 FREQUENCY          1273.49         C  7 -- H 13         +52.0% ( 62.0%)      0.0%
 TRANSITION DIPOLE   0.4932         C  7 -- H 14         +21.3% ( 39.7%)      8.9%
 TRAVEL (Ang.)       0.3640         C  7 -- H 15         +21.3% ( 39.7%)      9.1%
 REDUCED MASS        0.3997         C  6 -- C  7          +4.3% ( 17.8%)      0.0%
 EFFECTIVE MASS      1.4797
 FORCE CONSTANT      0.3819

 VIBRATION         23   13A'          ATOM PAIR      ENERGY CONTRIBUTION    RADIAL
 FREQUENCY          1284.00         C  7 -- H 14         +32.1% ( 49.3%)      0.6%
 TRANSITION DIPOLE   0.5434         C  7 -- H 15         +32.1% ( 49.3%)      0.5%
 TRAVEL (Ang.)       0.4323         C  7 -- H 13         +17.2% ( 36.1%)     16.9%
 REDUCED MASS        0.2810         C  5 -- H 12          +4.8% ( 19.0%)      0.2%
 EFFECTIVE MASS      1.4169
 FORCE CONSTANT      0.2730

 VIBRATION         24   11A"          ATOM PAIR      ENERGY CONTRIBUTION    RADIAL
 FREQUENCY          1334.16         C  4 -- H 11         +12.7% ( 47.6%)      1.9%
 TRANSITION DIPOLE   0.2057         C  2 -- H  9         +12.7% ( 47.6%)      1.9%
 TRAVEL (Ang.)       0.2737         C  4 -- C  5         +11.2% ( 44.6%)     96.7%
 REDUCED MASS        0.6749         C  1 -- C  2         +11.2% ( 44.6%)     96.7%
 EFFECTIVE MASS      5.4869
 FORCE CONSTANT      0.7078

 VIBRATION         25   14A'          ATOM PAIR      ENERGY CONTRIBUTION    RADIAL
 FREQUENCY          1356.12         C  6 -- C  7         +23.0% ( 72.6%)    100.0%
 TRANSITION DIPOLE   0.4791         C  1 -- C  6         +13.5% ( 55.6%)     38.6%
 TRAVEL (Ang.)       0.1548         C  5 -- C  6         +13.5% ( 55.6%)     38.6%
 REDUCED MASS        2.0746         C  1 -- C  2          +6.2% ( 37.6%)     71.2%
 EFFECTIVE MASS     10.6520
 FORCE CONSTANT      2.2479

 VIBRATION         26   12A"          ATOM PAIR      ENERGY CONTRIBUTION    RADIAL
 FREQUENCY          1373.20         C  5 -- H 12         +13.9% ( 44.2%)      0.0%
 TRANSITION DIPOLE   0.0049         C  1 -- H  8         +13.9% ( 44.2%)      0.0%
 TRAVEL (Ang.)       0.3127         C  3 -- H 10          +9.1% ( 35.8%)      0.0%
 REDUCED MASS        0.5021         C  4 -- H 11          +8.7% ( 34.9%)      0.0%
 EFFECTIVE MASS      3.5856
 FORCE CONSTANT      0.5579

 VIBRATION         27   15A'          ATOM PAIR      ENERGY CONTRIBUTION    RADIAL
 FREQUENCY          1393.22         C  7 -- H 15         +31.9% ( 56.4%)      1.4%
 TRANSITION DIPOLE   0.9365         C  7 -- H 14         +31.9% ( 56.4%)      1.4%
 TRAVEL (Ang.)       0.3461         C  7 -- H 13         +22.4% ( 47.3%)      1.0%
 REDUCED MASS        0.4041         C  6 -- C  7          +5.4% ( 23.1%)     99.9%
 EFFECTIVE MASS      2.2009
 FORCE CONSTANT      0.4622

 VIBRATION         28   13A"          ATOM PAIR      ENERGY CONTRIBUTION    RADIAL
 FREQUENCY          1539.80         C  2 -- C  3         +11.7% ( 47.1%)     27.3%
 TRANSITION DIPOLE   0.3318         C  3 -- C  4         +11.7% ( 47.1%)     27.3%
 TRAVEL (Ang.)       0.1801         C  3 -- H 10         +11.5% ( 46.6%)      0.0%
 REDUCED MASS        1.3505         C  1 -- C  2         +10.5% ( 44.7%)    100.0%
 EFFECTIVE MASS      9.5223         C  4 -- C  5         +10.5% ( 44.7%)    100.0%
 FORCE CONSTANT      1.8866         C  1 -- C  6         +10.4% ( 44.3%)     29.2%
                            C  5 -- C  6         +10.4% ( 44.3%)     29.2%

 VIBRATION         29   16A'          ATOM PAIR      ENERGY CONTRIBUTION    RADIAL
 FREQUENCY          1579.80         C  5 -- C  6         +14.7% ( 52.7%)     65.0%
 TRANSITION DIPOLE   0.8635         C  1 -- C  6         +14.7% ( 52.7%)     65.0%
 TRAVEL (Ang.)       0.1702         C  6 -- C  7          +9.5% ( 42.4%)    100.0%
 REDUCED MASS        1.4731         C  3 -- C  4          +9.1% ( 41.5%)     69.5%
 EFFECTIVE MASS      9.5750
 FORCE CONSTANT      2.1662

 VIBRATION         30   14A"          ATOM PAIR      ENERGY CONTRIBUTION    RADIAL
 FREQUENCY          1705.60         C  5 -- C  6         +15.1% ( 54.1%)     87.4%
 TRANSITION DIPOLE   0.5978         C  1 -- C  6         +15.1% ( 54.1%)     87.5%
 TRAVEL (Ang.)       0.1260         C  2 -- C  3         +14.7% ( 53.3%)     87.8%
 REDUCED MASS        2.4918         C  3 -- C  4         +14.7% ( 53.3%)     87.8%
 EFFECTIVE MASS     11.8856
 FORCE CONSTANT      4.2709

 VIBRATION         31   17A'          ATOM PAIR      ENERGY CONTRIBUTION    RADIAL
 FREQUENCY          1709.81         C  1 -- C  2         +17.2% ( 57.9%)    100.0%
 TRANSITION DIPOLE   1.0444         C  4 -- C  5         +17.2% ( 57.9%)    100.0%
 TRAVEL (Ang.)       0.1285         C  5 -- C  6         +10.0% ( 44.3%)     43.1%
 REDUCED MASS        2.3902         C  1 -- C  6         +10.0% ( 44.3%)     43.0%
 EFFECTIVE MASS     11.9191
 FORCE CONSTANT      4.1170

 VIBRATION         32   18A'          ATOM PAIR      ENERGY CONTRIBUTION    RADIAL
 FREQUENCY          2669.25         C  7 -- H 13         +68.5% ( 85.3%)     99.7%
 TRANSITION DIPOLE   0.6976         C  7 -- H 15         +15.3% ( 40.4%)     85.0%
 TRAVEL (Ang.)       0.2182         C  7 -- H 14         +15.3% ( 40.4%)     85.3%
 REDUCED MASS        0.5304         C  6 -- C  7          +0.8% (  9.5%)      0.1%
 EFFECTIVE MASS      1.4399
 FORCE CONSTANT      2.2265

 VIBRATION         33   15A"          ATOM PAIR      ENERGY CONTRIBUTION    RADIAL
 FREQUENCY          2675.30         C  7 -- H 14         +49.0% ( 72.2%)     97.9%
 TRANSITION DIPOLE   0.5776         C  7 -- H 15         +49.0% ( 72.2%)     98.0%
 TRAVEL (Ang.)       0.2250         C  6 -- C  7          +0.9% (  9.9%)      0.0%
 REDUCED MASS        0.4977         C  7 -- H 13          +0.9% (  9.6%)      0.0%
 EFFECTIVE MASS      1.4514
 FORCE CONSTANT      2.0988

 VIBRATION         34   19A'          ATOM PAIR      ENERGY CONTRIBUTION    RADIAL
 FREQUENCY          2752.42         C  2 -- H  9         +28.2% ( 53.8%)    100.0%
 TRANSITION DIPOLE   0.2533         C  4 -- H 11         +28.2% ( 53.8%)    100.0%
 TRAVEL (Ang.)       0.3360         C  3 -- H 10         +20.6% ( 45.9%)    100.0%
 REDUCED MASS        0.2170         C  1 -- H  8         +10.5% ( 32.8%)     99.9%
 EFFECTIVE MASS      1.3731         C  5 -- H 12         +10.5% ( 32.8%)     99.9%
 FORCE CONSTANT      0.9685

 VIBRATION         35   16A"          ATOM PAIR      ENERGY CONTRIBUTION    RADIAL
 FREQUENCY          2758.22         C  2 -- H  9         +34.2% ( 59.0%)    100.0%
 TRANSITION DIPOLE   0.2445         C  4 -- H 11         +34.2% ( 59.0%)    100.0%
 TRAVEL (Ang.)       0.3014         C  5 -- H 12         +14.8% ( 38.9%)     99.9%
 REDUCED MASS        0.2691         C  1 -- H  8         +14.8% ( 38.9%)     99.9%
 EFFECTIVE MASS      1.3531
 FORCE CONSTANT      1.2060

 VIBRATION         36   20A'          ATOM PAIR      ENERGY CONTRIBUTION    RADIAL
 FREQUENCY          2763.57         C  3 -- H 10         +46.5% ( 68.8%)    100.0%
 TRANSITION DIPOLE   0.8350         C  1 -- H  8         +25.3% ( 50.8%)    100.0%
 TRAVEL (Ang.)       0.2703         C  5 -- H 12         +25.3% ( 50.8%)    100.0%
 REDUCED MASS        0.3339         C  2 -- C  3          +0.5% (  6.8%)     15.9%
 EFFECTIVE MASS      1.3666
 FORCE CONSTANT      1.5027

 VIBRATION         37   17A"          ATOM PAIR      ENERGY CONTRIBUTION    RADIAL
 FREQUENCY          2765.82         C  5 -- H 12         +34.1% ( 58.9%)    100.0%
 TRANSITION DIPOLE   1.3205         C  1 -- H  8         +34.1% ( 58.9%)    100.0%
 TRAVEL (Ang.)       0.3012         C  2 -- H  9         +14.8% ( 38.8%)     99.9%
 REDUCED MASS        0.2687         C  4 -- H 11         +14.8% ( 38.8%)     99.9%
 EFFECTIVE MASS      1.3830
 FORCE CONSTANT      1.2110

 VIBRATION         38   21A'          ATOM PAIR      ENERGY CONTRIBUTION    RADIAL
 FREQUENCY          2773.83         C  3 -- H 10         +28.4% ( 53.5%)    100.0%
 TRANSITION DIPOLE   0.7616         C  4 -- H 11         +18.3% ( 42.9%)    100.0%
 TRAVEL (Ang.)       0.3822         C  2 -- H  9         +18.3% ( 42.9%)    100.0%
 REDUCED MASS        0.1664         C  1 -- H  8          +9.8% ( 31.4%)    100.0%
 EFFECTIVE MASS      1.4148
 FORCE CONSTANT      0.7544

 VIBRATION         39   22A'          ATOM PAIR      ENERGY CONTRIBUTION    RADIAL
 FREQUENCY          2780.58         C  7 -- H 14         +29.3% ( 52.4%)     95.8%
 TRANSITION DIPOLE   0.3693         C  7 -- H 15         +29.3% ( 52.4%)     95.8%
 TRAVEL (Ang.)       0.3174         C  7 -- H 13         +24.7% ( 48.1%)     94.5%
 REDUCED MASS        0.2407         C  5 -- H 12          +3.7% ( 18.7%)     99.8%
 EFFECTIVE MASS      1.1952
 FORCE CONSTANT      1.0966

      SYMMETRY NUMBER FOR POINT-GROUP Cs  =  1


          SYSTEM IS A GROUND STATE



 toluene


          MOLECULE IS NOT LINEAR

          THERE ARE 39 GENUINE VIBRATIONS IN THIS SYSTEM
          THIS THERMODYNAMICS CALCULATION IS LIMITED TO
          MOLECULES WHICH HAVE NO INTERNAL ROTATIONS




                    CALCULATED THERMODYNAMIC PROPERTIES
                                          *
   TEMP. (K)   PARTITION FUNCTION   H.O.F.    ENTHALPY  HEAT CAPACITY ENTROPY
                                   KCAL/MOL   CAL/MOLE    CAL/K/MOL  CAL/K/MOL


 298.00  VIB.     0.1407D+02                  2140.2415    17.1390    12.4365
         ROT.     0.1742D+06                   888.2803     2.9808    26.9624
         INT.     0.2451D+07                  3028.5218    20.1198    39.3989
         TRA.     0.8551D+27                  1480.4672     4.9680    39.4718
         TOT.                       13.196    4508.9890    25.0878    78.8707

 200.00  VIB.     0.4634D+01                   836.7257     9.6960     7.2308
         ROT.     0.9578D+05                   596.1613     2.9808    25.7737
         INT.     0.4438D+06                  1432.8870    12.6768    33.0045
         TRA.     0.4701D+27                   993.6021     4.9680    37.4906
         TOT.                       11.114    2426.4891    17.6448    70.4951

 210.00  VIB.     0.5153D+01                   937.1051    10.3832     7.7204
         ROT.     0.1031D+06                   625.9693     2.9808    25.9191
         INT.     0.5310D+06                  1563.0745    13.3640    33.6396
         TRA.     0.5058D+27                  1043.2822     4.9680    37.7330
         TOT.                       11.294    2606.3567    18.3320    71.3726

 220.00  VIB.     0.5739D+01                  1044.4548    11.0899     8.2197
         ROT.     0.1105D+06                   655.7774     2.9808    26.0578
         INT.     0.6342D+06                  1700.2322    14.0708    34.2775
         TRA.     0.5424D+27                  1092.9623     4.9680    37.9641
         TOT.                       11.480    2793.1945    19.0388    72.2416

 230.00  VIB.     0.6402D+01                  1158.9670    11.8156     8.7286
         ROT.     0.1181D+06                   685.5855     2.9808    26.1903
         INT.     0.7563D+06                  1844.5525    14.7964    34.9189
         TRA.     0.5798D+27                  1142.6424     4.9680    38.1850
         TOT.                       11.674    2987.1949    19.7644    73.1039

 240.00  VIB.     0.7155D+01                  1280.8254    12.5590     9.2471
         ROT.     0.1259D+06                   715.3935     2.9808    26.3172
         INT.     0.9008D+06                  1996.2190    15.5398    35.5643
         TRA.     0.6180D+27                  1192.3226     4.9680    38.3964
         TOT.                       11.876    3188.5415    20.5078    73.9607

 250.00  VIB.     0.8008D+01                  1410.2012    13.3188     9.7751
         ROT.     0.1339D+06                   745.2016     2.9808    26.4389
         INT.     0.1072D+07                  2155.4028    16.2996    36.2140
         TRA.     0.6570D+27                  1242.0027     4.9680    38.5992
         TOT.                       12.085    3397.4055    21.2676    74.8132

 260.00  VIB.     0.8978D+01                  1547.2507    14.0934    10.3125
         ROT.     0.1420D+06                   775.0097     2.9808    26.5558
         INT.     0.1275D+07                  2322.2604    17.0742    36.8683
         TRA.     0.6968D+27                  1291.6828     4.9680    38.7941
         TOT.                       12.301    3613.9431    22.0422    75.6624

 270.00  VIB.     0.1008D+02                  1692.1129    14.8810    10.8592
         ROT.     0.1502D+06                   804.8177     2.9808    26.6683
         INT.     0.1515D+07                  2496.9306    17.8618    37.5274
         TRA.     0.7374D+27                  1341.3629     4.9680    38.9816
         TOT.                       12.526    3838.2935    22.8299    76.5090

 280.00  VIB.     0.1134D+02                  1844.9083    15.6797    11.4148
         ROT.     0.1587D+06                   834.6258     2.9808    26.7767
         INT.     0.1799D+07                  2679.5341    18.6605    38.1914
         TRA.     0.7788D+27                  1391.0430     4.9680    39.1622
         TOT.                       12.758    4070.5771    23.6286    77.3537

 290.00  VIB.     0.1278D+02                  2005.7380    16.4875    11.9790
         ROT.     0.1672D+06                   864.4339     2.9808    26.8813
         INT.     0.2137D+07                  2870.1718    19.4683    38.8603
         TRA.     0.8209D+27                  1440.7231     4.9680    39.3366
         TOT.                       12.998    4310.8949    24.4364    78.1969

 300.00  VIB.     0.1442D+02                  2174.6829    17.3025    12.5517
         ROT.     0.1760D+06                   894.2419     2.9808    26.9823
         INT.     0.2537D+07                  3068.9249    20.2833    39.5340
         TRA.     0.8637D+27                  1490.4032     4.9680    39.5050
         TOT.                       13.247    4559.3280    25.2513    79.0390

 310.00  VIB.     0.1629D+02                  2351.8045    18.1226    13.1324
         ROT.     0.1848D+06                   924.0500     2.9808    27.0801
         INT.     0.3012D+07                  3275.8545    21.1034    40.2125
         TRA.     0.9072D+27                  1540.0833     4.9680    39.6679
         TOT.                       13.503    4815.9378    26.0714    79.8804

 320.00  VIB.     0.1844D+02                  2537.1449    18.9459    13.7208
         ROT.     0.1939D+06                   953.8580     2.9808    27.1747
         INT.     0.3575D+07                  3491.0030    21.9267    40.8955
         TRA.     0.9515D+27                  1589.7634     4.9680    39.8256
         TOT.                       13.768    5080.7664    26.8947    80.7211

 330.00  VIB.     0.2091D+02                  2730.7277    19.7708    14.3164
         ROT.     0.2030D+06                   983.6661     2.9808    27.2664
         INT.     0.4245D+07                  3714.3938    22.7516    41.5828
         TRA.     0.9964D+27                  1639.4435     4.9680    39.9785
         TOT.                       14.041    5353.8374    27.7196    81.5613

 340.00  VIB.     0.2374D+02                  2932.5592    20.5954    14.9189
         ROT.     0.2123D+06                  1013.4742     2.9808    27.3554
         INT.     0.5040D+07                  3946.0334    23.5762    42.2743
         TRA.     0.1042D+28                  1689.1236     4.9680    40.1268
         TOT.                       14.322    5635.1570    28.5442    82.4011

 350.00  VIB.     0.2699D+02                  3142.6294    21.4182    15.5278
         ROT.     0.2217D+06                  1043.2822     2.9808    27.4418
         INT.     0.5985D+07                  4185.9117    24.3990    42.9696
         TRA.     0.1088D+28                  1738.8037     4.9680    40.2708
         TOT.                       14.612    5924.7154    29.3671    83.2404

 360.00  VIB.     0.3073D+02                  3360.9134    22.2379    16.1426
         ROT.     0.2313D+06                  1073.0903     2.9808    27.5258
         INT.     0.7109D+07                  4434.0037    25.2187    43.6684
         TRA.     0.1135D+28                  1788.4838     4.9680    40.4108
         TOT.                       14.910    6222.4875    30.1867    84.0792

 370.00  VIB.     0.3504D+02                  3587.3727    23.0531    16.7631
         ROT.     0.2410D+06                  1102.8984     2.9808    27.6075
         INT.     0.8445D+07                  4690.2711    26.0339    44.3705
         TRA.     0.1183D+28                  1838.1639     4.9680    40.5469
         TOT.                       15.216    6528.4350    31.0019    84.9174

 380.00  VIB.     0.4001D+02                  3821.9566    23.8627    17.3886
         ROT.     0.2509D+06                  1132.7064     2.9808    27.6870
         INT.     0.1004D+08                  4954.6631    26.8435    45.0756
         TRA.     0.1231D+28                  1887.8440     4.9680    40.6794
         TOT.                       15.530    6842.5071    31.8115    85.7549

 390.00  VIB.     0.4573D+02                  4064.6036    24.6655    18.0188
         ROT.     0.2608D+06                  1162.5145     2.9808    27.7644
         INT.     0.1193D+08                  5227.1181    27.6464    45.7832
         TRA.     0.1280D+28                  1937.5242     4.9680    40.8084
         TOT.                       15.852    7164.6422    32.6144    86.5917

 400.00  VIB.     0.5235D+02                  4315.2424    25.4609    18.6534
         ROT.     0.2709D+06                  1192.3226     2.9808    27.8399
         INT.     0.1418D+08                  5507.5650    28.4417    46.4932
         TRA.     0.1330D+28                  1987.2043     4.9680    40.9342
         TOT.                       16.182    7494.7692    33.4097    87.4274

   *: NOTE: HEATS OF FORMATION ARE RELATIVE TO THE
            ELEMENTS IN THEIR STANDARD STATE AT 298K
              (=  Standard Enthalpy of Formation).

            Hvib:  Zero-point energy is not included.
                   frequencies of less than zero cm-1 are not included.
            Hrot = (3/2)RT
            Htra = (3/2)RT + pV = (5/2)RT

            Heat capacity is Cp, not Cv

          For more information, see: HTTP://OpenMOPAC.net/Manual/thermochemistry.html


           FORCE CONSTANT IN CARTESIAN COORDINATES (Millidynes/A)

    ATOM   CHEMICAL       X               Y               Z
   NUMBER   SYMBOL  FORCE CONSTANT  FORCE CONSTANT  FORCE CONSTANT

      1       C       11.104569       10.100479        2.391445
      2       C       11.039790       10.265497        2.421086
      3       C        9.884719       11.366637        2.395111
      4       C       11.036034       10.269253        2.421086
      5       C       11.107756       10.097292        2.391445
      6       C       11.218237       11.502809        2.762685
      7       C        7.545844        6.487155        6.033440
      8       H        1.768112        3.452541        0.386689
      9       H        1.755442        3.438226        0.390663
     10       H        4.279265        0.923091        0.387886
     11       H        1.763495        3.430172        0.390663
     12       H        1.760117        3.460535        0.386690
     13       H        1.193295        0.540362        3.604807
     14       H        1.350500        2.806854        1.262482
     15       H        1.344424        2.813170        1.262242

 **********************
 *                    *
 * JOB ENDED NORMALLY *
 *                    *
 **********************



 TOTAL JOB TIME:             6.11 SECONDS

 == MOPAC DONE ==
