 *******************************************************************************
 **                                                                           **
 **                              MOPAC v22.1.0                                **
 **                                                                           **
 *******************************************************************************
 **          Digital Object Identifier (DOI): 10.5281/zenodo.6511958          **
 **    Visit the DOI location for information on how to cite this program.    **
 *******************************************************************************

                              PM7 CALCULATION RESULTS

 *******************************************************************************
 *  CALCULATION DONE:                                Wed Jan 31 13:24:07 2024  *
 *  PM7        - The PM7 Hamiltonian to be used
 *  SINGLET    - SPIN STATE DEFINED AS A SINGLET
 *
 *
 *
 *                 CHARGE ON SYSTEM = 0
 *
 *
 *
 *  PRECISE    - TIGHTER CRITERIA TO BE USED
 *  T=         - A TIME OF 172800.0 SECONDS REQUESTED
 *  DUMP=N     - RESTART FILE WRITTEN EVERY 7200.0 SECONDS REQUESTED
 *  LARGE      - EXPANDED OUTPUT TO BE PRINTED
 *******************************************************************************
 PRECISE LARGE CHARGE=0 SINGLET  PM7
 Cyklohexan-lodicka

   ATOM   CHEMICAL          X               Y               Z
  NUMBER   SYMBOL      (ANGSTROMS)     (ANGSTROMS)     (ANGSTROMS)
 
     1       C         -3.21863000  *   2.47528000  *  -0.25255000  *
     2       C         -4.46907000  *   1.73502000  *   0.21447000  *
     3       C         -4.44570000  *   0.26855000  *  -0.20814000  *
     4       C         -3.22918000  *  -0.10601000  *  -0.83866000  *
     5       C         -1.92069000  *   0.30942000  *  -0.21039000  *
     6       C         -1.94405000  *   1.77590000  *   0.21223000  *
     7       H         -3.23493000  *   3.50307000  *   0.12714000  *
     8       H         -3.22063000  *   2.53885000  *  -1.34771000  *
     9       H         -5.36096000  *   2.22273000  *  -0.19473000  *
    10       H         -4.54296000  *   1.79810000  *   1.30716000  *
    11       H         -4.51946000  *   0.20308000  *  -1.30070000  *
    12       H         -5.32061000  *  -0.24776000  *   0.20263000  *
    13       H         -3.32772000  *  -0.48670000  *  -1.82957000  *
    14       H         -3.20373000  *  -0.83651000  *   0.00036000  *
    15       H         -1.84679000  *   0.24635000  *  -1.30307000  *
    16       H         -1.02880000  *  -0.17828000  *   0.19882000  *
    17       H         -1.06914000  *   2.29221000  *  -0.19854000  *
    18       H         -1.87030000  *   1.84137000  *   1.30479000  *
 


          CARTESIAN COORDINATES 

    NO.       ATOM           X           Y           Z

     1         C         -3.2186      2.4753     -0.2525
     2         C         -4.4691      1.7350      0.2145
     3         C         -4.4457      0.2686     -0.2081
     4         C         -3.2292     -0.1060     -0.8387
     5         C         -1.9207      0.3094     -0.2104
     6         C         -1.9441      1.7759      0.2122
     7         H         -3.2349      3.5031      0.1271
     8         H         -3.2206      2.5389     -1.3477
     9         H         -5.3610      2.2227     -0.1947
    10         H         -4.5430      1.7981      1.3072
    11         H         -4.5195      0.2031     -1.3007
    12         H         -5.3206     -0.2478      0.2026
    13         H         -3.3277     -0.4867     -1.8296
    14         H         -3.2037     -0.8365      0.0004
    15         H         -1.8468      0.2464     -1.3031
    16         H         -1.0288     -0.1783      0.1988
    17         H         -1.0691      2.2922     -0.1985
    18         H         -1.8703      1.8414      1.3048

 General Reference for PM7:
 "Optimization of Parameters for Semiempirical Methods VI: More Modifications to the 
 NDDO Approximations and Re-optimization of Parameters", J. J. P. Stewart, J. Mol. Mod., 1:32, 19 (2013)
 https://link.springer.com/article/10.1007/s00894-012-1667-x

           Empirical Formula: C6 H12  =    18 atoms



      MOLECULAR POINT GROUP   :   C1  


 SINGLET STATE CALCULATION


      RHF CALCULATION, NO. OF DOUBLY OCCUPIED LEVELS = 18


          Geometry optimization using EF

          DIAGONAL MATRIX USED AS START HESSIAN

 CYCLE:     1 TIME:   0.039 TIME LEFT:  2.00D  GRAD.:   356.343 HEAT:  143.4422
 CYCLE:     2 TIME:   0.023 TIME LEFT:  2.00D  GRAD.:   245.217 HEAT:  88.24370
 CYCLE:     3 TIME:   0.023 TIME LEFT:  2.00D  GRAD.:   192.048 HEAT:  29.16454
 CYCLE:     4 TIME:   0.027 TIME LEFT:  2.00D  GRAD.:   197.666 HEAT:  9.530274
 CYCLE:     5 TIME:   0.020 TIME LEFT:  2.00D  GRAD.:   207.035 HEAT:  2.570723
 CYCLE:     6 TIME:   0.047 TIME LEFT:  2.00D  GRAD.:   107.222 HEAT: -10.98191
 CYCLE:     7 TIME:   0.035 TIME LEFT:  2.00D  GRAD.:    76.147 HEAT: -14.68427
 CYCLE:     8 TIME:   0.016 TIME LEFT:  2.00D  GRAD.:    76.790 HEAT: -15.68904
 CYCLE:     9 TIME:   0.035 TIME LEFT:  2.00D  GRAD.:    39.532 HEAT: -18.03744
 CYCLE:    10 TIME:   0.031 TIME LEFT:  2.00D  GRAD.:    24.109 HEAT: -18.85707
 CYCLE:    11 TIME:   0.027 TIME LEFT:  2.00D  GRAD.:    27.732 HEAT: -19.50070
 CYCLE:    12 TIME:   0.023 TIME LEFT:  2.00D  GRAD.:    27.616 HEAT: -20.22718
 CYCLE:    13 TIME:   0.020 TIME LEFT:  2.00D  GRAD.:    24.125 HEAT: -20.49282
 CYCLE:    14 TIME:   0.023 TIME LEFT:  2.00D  GRAD.:    26.820 HEAT: -20.68821
 CYCLE:    15 TIME:   0.016 TIME LEFT:  2.00D  GRAD.:    19.396 HEAT: -20.96833
 CYCLE:    16 TIME:   0.023 TIME LEFT:  2.00D  GRAD.:    19.421 HEAT: -21.11104
 CYCLE:    17 TIME:   0.020 TIME LEFT:  2.00D  GRAD.:    16.888 HEAT: -21.30192
 CYCLE:    18 TIME:   0.023 TIME LEFT:  2.00D  GRAD.:     9.139 HEAT: -21.52855
 CYCLE:    19 TIME:   0.016 TIME LEFT:  2.00D  GRAD.:    10.340 HEAT: -21.74800
 CYCLE:    20 TIME:   0.027 TIME LEFT:  2.00D  GRAD.:    16.368 HEAT: -22.04414
 CYCLE:    21 TIME:   0.016 TIME LEFT:  2.00D  GRAD.:    17.392 HEAT: -22.39454
 CYCLE:    22 TIME:   0.016 TIME LEFT:  2.00D  GRAD.:    16.552 HEAT: -22.95577
 CYCLE:    23 TIME:   0.027 TIME LEFT:  2.00D  GRAD.:    21.417 HEAT: -23.64146
 CYCLE:    24 TIME:   0.016 TIME LEFT:  2.00D  GRAD.:    26.219 HEAT: -23.93604
 CYCLE:    25 TIME:   0.016 TIME LEFT:  2.00D  GRAD.:    20.795 HEAT: -24.43010
 CYCLE:    26 TIME:   0.008 TIME LEFT:  2.00D  GRAD.:    16.893 HEAT: -24.80673
 CYCLE:    27 TIME:   0.020 TIME LEFT:  2.00D  GRAD.:    14.695 HEAT: -25.30047
 CYCLE:    28 TIME:   0.016 TIME LEFT:  2.00D  GRAD.:    18.947 HEAT: -25.85740
 CYCLE:    29 TIME:   0.016 TIME LEFT:  2.00D  GRAD.:    15.880 HEAT: -26.11714
 CYCLE:    30 TIME:   0.016 TIME LEFT:  2.00D  GRAD.:    10.761 HEAT: -26.41324
 CYCLE:    31 TIME:   0.023 TIME LEFT:  2.00D  GRAD.:     7.014 HEAT: -26.56212
 CYCLE:    32 TIME:   0.020 TIME LEFT:  2.00D  GRAD.:     6.749 HEAT: -26.70804
 CYCLE:    33 TIME:   0.020 TIME LEFT:  2.00D  GRAD.:     8.474 HEAT: -26.87514
 CYCLE:    34 TIME:   0.012 TIME LEFT:  2.00D  GRAD.:     6.672 HEAT: -27.05327
 CYCLE:    35 TIME:   0.020 TIME LEFT:  2.00D  GRAD.:     6.457 HEAT: -27.20523
 CYCLE:    36 TIME:   0.016 TIME LEFT:  2.00D  GRAD.:     6.917 HEAT: -27.29515
 CYCLE:    37 TIME:   0.023 TIME LEFT:  2.00D  GRAD.:     5.393 HEAT: -27.35689
 CYCLE:    38 TIME:   0.020 TIME LEFT:  2.00D  GRAD.:     3.596 HEAT: -27.38972
 CYCLE:    39 TIME:   0.016 TIME LEFT:  2.00D  GRAD.:     3.338 HEAT: -27.41003
 CYCLE:    40 TIME:   0.016 TIME LEFT:  2.00D  GRAD.:     2.162 HEAT: -27.42167
 CYCLE:    41 TIME:   0.016 TIME LEFT:  2.00D  GRAD.:     1.182 HEAT: -27.42975
 CYCLE:    42 TIME:   0.027 TIME LEFT:  2.00D  GRAD.:     0.797 HEAT: -27.43133
 CYCLE:    43 TIME:   0.023 TIME LEFT:  2.00D  GRAD.:     0.485 HEAT: -27.43215
 CYCLE:    44 TIME:   0.020 TIME LEFT:  2.00D  GRAD.:     0.380 HEAT: -27.43255
 CYCLE:    45 TIME:   0.027 TIME LEFT:  2.00D  GRAD.:     0.319 HEAT: -27.43287
 CYCLE:    46 TIME:   0.023 TIME LEFT:  2.00D  GRAD.:     0.274 HEAT: -27.43306
 CYCLE:    47 TIME:   0.012 TIME LEFT:  2.00D  GRAD.:     0.180 HEAT: -27.43320
 CYCLE:    48 TIME:   0.027 TIME LEFT:  2.00D  GRAD.:     0.106 HEAT: -27.43325
 CYCLE:    49 TIME:   0.020 TIME LEFT:  2.00D  GRAD.:     0.066 HEAT: -27.43327
 CYCLE:    50 TIME:   0.023 TIME LEFT:  2.00D  GRAD.:     0.048 HEAT: -27.43328

     GRADIENT =  0.04756 IS LESS THAN CUTOFF =  0.05000



 -------------------------------------------------------------------------------
 PRECISE LARGE CHARGE=0 SINGLET  PM7
 Cyklohexan-lodicka



     GEOMETRY OPTIMISED USING EIGENVECTOR FOLLOWING (EF).     
     SCF FIELD WAS ACHIEVED                                   


                              PM7 CALCULATION
                                                       MOPAC v22.1.0 Windows
                                                       Wed Jan 31 13:24:08 2024




          FINAL HEAT OF FORMATION =        -27.43328 KCAL/MOL =    -114.78085 KJ/MOL


          COSMO AREA              =        132.97 SQUARE ANGSTROMS
          COSMO VOLUME            =        127.54 CUBIC ANGSTROMS

          GRADIENT NORM           =          0.04756          =       0.01121 PER ATOM
          IONIZATION POTENTIAL    =         10.812610 EV
          HOMO LUMO ENERGIES (EV) =        -10.813  4.131
          NO. OF FILLED LEVELS    =         18
          MOLECULAR WEIGHT        =         84.1608         POINT GROUP:  D3d 

          MOLECULAR DIMENSIONS (Angstroms)

            Atom       Atom       Distance
            H    17    H    12     5.00527
            H    13    H     7     4.34493
            H    18    H    11     2.82679


          SCF CALCULATIONS        =         55
 
          WALL-CLOCK TIME         =      1.168 SECONDS
          COMPUTATION TIME        =      2.047 SECONDS




   ATOM   CHEMICAL          X               Y               Z
  NUMBER   SYMBOL      (ANGSTROMS)     (ANGSTROMS)     (ANGSTROMS)
 
     1       C         -3.22190395  *   2.55022901  *  -0.12971981  *
     2       C         -4.47356426  *   1.72205802  *   0.19189753  *
     3       C         -4.46392077  *   0.40378650  *  -0.59424156  *
     4       C         -3.19277373  *  -0.39872193  *  -0.28429406  *
     5       C         -1.94116207  *   0.42948434  *  -0.60603022  *
     6       C         -1.95077030  *   1.74768961  *   0.18023167  *
     7       H         -3.22889144  *   3.49036061  *   0.45031079  *
     8       H         -3.22971651  *   2.84553441  *  -1.19522312  *
     9       H         -5.38383738  *   2.30053015  *  -0.04702548  *
    10       H         -4.51743881  *   1.51280353  *   1.27672402  *
    11       H         -4.52240598  *   0.61194627  *  -1.67859923  *
    12       H         -5.36002680  *  -0.19296469  *  -0.34677589  *
    13       H         -3.18593603  *  -1.33898331  *  -0.86409842  *
    14       H         -3.18473993  *  -0.69399840  *   0.78122021  *
    15       H         -1.89724703  *   0.63891881  *  -1.69083362  *
    16       H         -1.03086272  *  -0.14900710  *  -0.36719878  *
    17       H         -1.05466955  *   2.34443919  *  -0.06719148  *
    18       H         -1.89234892  *   1.53947695  *   1.26455369  *

                             CARTESIAN COORDINATES

   1    C       -3.221903948     2.550229014    -0.129719807
   2    C       -4.473564262     1.722058017     0.191897531
   3    C       -4.463920766     0.403786498    -0.594241557
   4    C       -3.192773727    -0.398721932    -0.284294058
   5    C       -1.941162068     0.429484342    -0.606030222
   6    C       -1.950770301     1.747689607     0.180231671
   7    H       -3.228891442     3.490360612     0.450310791
   8    H       -3.229716512     2.845534414    -1.195223119
   9    H       -5.383837378     2.300530155    -0.047025483
  10    H       -4.517438811     1.512803531     1.276724025
  11    H       -4.522405975     0.611946265    -1.678599231
  12    H       -5.360026803    -0.192964690    -0.346775894
  13    H       -3.185936030    -1.338983306    -0.864098418
  14    H       -3.184739927    -0.693998398     0.781220211
  15    H       -1.897247031     0.638918806    -1.690833617
  16    H       -1.030862721    -0.149007101    -0.367198776
  17    H       -1.054669554     2.344439185    -0.067191476
  18    H       -1.892348924     1.539476953     1.264553687


           Empirical Formula: C6 H12  =    18 atoms



      MOLECULAR POINT GROUP   :   D3d 


                  EIGENVALUES  
 -30.03312 -25.70954 -25.70908 -20.57710 -20.57669 -18.97824 -16.42246 -14.85560
 -14.85522 -14.66421 -13.08359 -12.86644 -12.86593 -11.83319 -11.83296 -10.94765
 -10.81273 -10.81261   4.13109   4.13113   4.34363   4.77691   4.77723   4.99384
   5.85835   5.85858   5.91798   5.93820   6.18891   6.18894   6.64264   6.73311
   6.73314   6.78065   6.82203   6.82209


              NET ATOMIC CHARGES AND DIPOLE CONTRIBUTIONS

  ATOM NO.   TYPE          CHARGE      No. of ELECS.   s-Pop       p-Pop       
    1          C          -0.262165        4.2622     1.05834     3.20382
    2          C          -0.262159        4.2622     1.05834     3.20382
    3          C          -0.262156        4.2622     1.05834     3.20382
    4          C          -0.262165        4.2622     1.05834     3.20383
    5          C          -0.262148        4.2621     1.05834     3.20380
    6          C          -0.262168        4.2622     1.05834     3.20383
    7          H           0.127477        0.8725     0.87252
    8          H           0.134686        0.8653     0.86531
    9          H           0.127477        0.8725     0.87252
   10          H           0.134684        0.8653     0.86532
   11          H           0.134683        0.8653     0.86532
   12          H           0.127477        0.8725     0.87252
   13          H           0.127476        0.8725     0.87252
   14          H           0.134682        0.8653     0.86532
   15          H           0.134686        0.8653     0.86531
   16          H           0.127474        0.8725     0.87253
   17          H           0.127478        0.8725     0.87252
   18          H           0.134681        0.8653     0.86532
 DIPOLE           X         Y         Z       TOTAL
 POINT-CHG.     0.000    -0.000     0.000     0.000
 HYBRID         0.000    -0.000     0.000     0.000
 SUM            0.000    -0.000     0.000     0.000


          ATOMIC ORBITAL ELECTRON POPULATIONS

     Atom    s        px        py        pz   
    1  C   1.05834   0.99743   1.06136   1.14503
    2  C   1.05834   1.05789   1.03043   1.11550
    3  C   1.05834   1.05568   1.03211   1.11603
    4  C   1.05834   0.99744   1.06134   1.14505
    5  C   1.05834   1.05789   1.03043   1.11548
    6  C   1.05834   1.05569   1.03212   1.11602
    7  H   0.87252
    8  H   0.86531
    9  H   0.87252
   10  H   0.86532
   11  H   0.86532
   12  H   0.87252
   13  H   0.87252
   14  H   0.86532
   15  H   0.86531
   16  H   0.87253
   17  H   0.87252
   18  H   0.86532

 **********************
 *                    *
 * JOB ENDED NORMALLY *
 *                    *
 **********************



 TOTAL JOB TIME:             1.17 SECONDS

 == MOPAC DONE ==
