 *******************************************************************************
 **                                                                           **
 **                              MOPAC v22.1.1                                **
 **                                                                           **
 *******************************************************************************
 **          Digital Object Identifier (DOI): 10.5281/zenodo.6511958          **
 **    Visit the DOI location for information on how to cite this program.    **
 *******************************************************************************

                              PM7 CALCULATION RESULTS

 *******************************************************************************
 *  CALCULATION DONE:                                Tue Feb 20 18:17:59 2024  *
 *  PM7        - The PM7 Hamiltonian to be used
 *  GEO-OK     - OVERRIDE INTERATOMIC DISTANCE AND OTHER SAFETY CHECKS
 *  SINGLET    - SPIN STATE DEFINED AS A SINGLET
 *  GEO_DAT    - DATA SET GEOMETRY IS IN FILE "lodicka_PM7_bod1.arc"
 *  GEO_REF    - REFERENCE GEOMETRY IS IN FILE "lodicka_PM7_bod2.arc"
 *               (NO BIAS TOWARDS THE REFERENCE GEOMETRY WILL BE APPLIED)
 *
 *
 *
 *                 CHARGE ON SYSTEM = 0
 *
 *
 *
 *  PRECISE    - TIGHTER CRITERIA TO BE USED
 *  SADDLE     - TRANSITION STATE TO BE OPTIMIZED
 *  T=         - A TIME OF 172800.0 SECONDS REQUESTED
 *  DUMP=N     - RESTART FILE WRITTEN EVERY 7200.0 SECONDS REQUESTED
 *******************************************************************************
  GEO_DAT="lodicka_PM7_bod1.arc" GEO_REF="lodicka_PM7_bod2.arc" SADDLE  GEO-OK CHARGE=0 SINGLET  PM7 PRECISE
 Cyklohexan, lodicka, TS

   ATOM   CHEMICAL          X               Y               Z
  NUMBER   SYMBOL      (ANGSTROMS)     (ANGSTROMS)     (ANGSTROMS)
 
     1       C         -3.21863000  *   2.47528000  *  -0.25255000  *
     2       C         -4.46907000  *   1.73502000  *   0.21447000  *
     3       C         -4.44570000  *   0.26855000  *  -0.20814000  *
     4       C         -3.17113000  *  -0.43084000  *   0.25664000  *
     5       C         -1.92069000  *   0.30942000  *  -0.21039000  *
     6       C         -1.94405000  *   1.77590000  *   0.21223000  *
     7       H         -3.23493000  *   3.50307000  *   0.12714000  *
     8       H         -3.22063000  *   2.53885000  *  -1.34771000  *
     9       H         -5.36096000  *   2.22273000  *  -0.19473000  *
    10       H         -4.54296000  *   1.79810000  *   1.30716000  *
    11       H         -4.51946000  *   0.20308000  *  -1.30070000  *
    12       H         -5.32061000  *  -0.24776000  *   0.20263000  *
    13       H         -3.15483000  *  -1.45862000  *  -0.12306000  *
    14       H         -3.16913000  *  -0.49441000  *   1.35179000  *
    15       H         -1.84679000  *   0.24635000  *  -1.30307000  *
    16       H         -1.02880000  *  -0.17828000  *   0.19882000  *
    17       H         -1.06914000  *   2.29221000  *  -0.19854000  *
    18       H         -1.87030000  *   1.84137000  *   1.30479000  *
 

           The two systems have different chain letters, so all chain letters changed to "X"

                        After docking

                     Atoms that move a lot

                     Atom Label             GEO_REF Coordinates       Movement    Integral

            (         13          X    )  -3.032  -0.314  -1.950        1.38         1.38
            (         14          X    )  -3.127  -1.049  -0.091        0.84         2.22
            (         15          X    )  -1.847   0.246  -1.303        0.57         2.79
            (          4          X    )  -3.179  -0.250  -0.897        0.57         3.36
            (         11          X    )  -4.519   0.203  -1.301        0.56         3.92
            (         12          X    )  -5.321  -0.248   0.203        0.55         4.47
            (         16          X    )  -1.029  -0.178   0.199        0.55         5.02
            (          5          X    )  -1.921   0.309  -0.210        0.43         5.45
            (          3          X    )  -4.446   0.269  -0.208        0.43         5.88
            (         10          X    )  -4.543   1.798   1.307        0.33         6.21
            (         18          X    )  -1.870   1.841   1.305        0.31         6.52
            (          7          X    )  -3.229   3.303   0.308        0.26         6.78
            (          8          X    )  -3.215   2.682  -1.209        0.21         6.99
            (          1          X    )  -3.224   2.628  -0.251        0.17         7.16
            (         17          X    )  -1.069   2.292  -0.199        0.12         7.28
            (          9          X    )  -5.361   2.223  -0.195        0.10         7.38
            (          2          X    )  -4.469   1.735   0.214        0.0620       7.45
            (          6          X    )  -1.944   1.776   0.212        0.0516       7.50

     Residues that move a lot and their (Movement in Angstroms, per atom)


   Difference between GEO_DAT and GEO_REF: 7.497 = total,  0.4165 = Average,  0.5233 = RMS, in Angstroms

 General Reference for PM7:
 "Optimization of Parameters for Semiempirical Methods VI: More Modifications to the 
 NDDO Approximations and Re-optimization of Parameters", J. J. P. Stewart, J. Mol. Mod., 1:32, 19 (2013)
 https://link.springer.com/article/10.1007/s00894-012-1667-x

           Empirical Formula: C6 H12  =    18 atoms



      MOLECULAR POINT GROUP   :   D3d 


 SINGLET STATE CALCULATION


      RHF CALCULATION, NO. OF DOUBLY OCCUPIED LEVELS = 18



  CARTESIAN GEOMETRY OF FIRST SYSTEM


   1    C         -3.22410       2.62751      -0.25078
   2    C         -4.46907       1.73502       0.21447
   3    C         -4.44570       0.26855      -0.20814
   4    C         -3.17874      -0.24952      -0.89691
   5    C         -1.92069       0.30942      -0.21039
   6    C         -1.94405       1.77590       0.21223
   7    H         -3.22917       3.30339       0.30800
   8    H         -3.21541       2.68157      -1.20894
   9    H         -5.36096       2.22273      -0.19473
  10    H         -4.54296       1.79810       1.30716
  11    H         -4.51946       0.20308      -1.30070
  12    H         -5.32061      -0.24776       0.20263
  13    H         -3.03236      -0.31360      -1.95001
  14    H         -3.12651      -1.04862      -0.09074
  15    H         -1.84679       0.24635      -1.30307
  16    H         -1.02880      -0.17828       0.19882
  17    H         -1.06914       2.29221      -0.19854
  18    H         -1.87030       1.84137       1.30479


  CARTESIAN GEOMETRY OF SECOND SYSTEM


   1    C         -3.21868       2.54006      -0.10008
   2    C         -4.46286       1.69689       0.16592
   3    C         -4.43350       0.38753      -0.61791
   4    C         -3.15297      -0.39924      -0.35157
   5    C         -1.90879       0.44393      -0.61758
   6    C         -1.93814       1.75330       0.16627
   7    H         -3.23879       3.43638       0.52999
   8    H         -3.22616       2.88169      -1.14251
   9    H         -5.35931       2.26728      -0.10207
  10    H         -4.53196       1.47784       1.23860
  11    H         -4.51203       0.60328      -1.69062
  12    H         -5.30365      -0.22233      -0.35017
  13    H         -3.13286      -1.29555      -0.98165
  14    H         -3.14549      -0.74087       0.69085
  15    H         -1.83968       0.66299      -1.69025
  16    H         -1.01234      -0.12646      -0.34958
  17    H         -1.06799       2.36316      -0.10148
  18    H         -1.85962       1.53754       1.23897


   "DISTANCE":     2.220015


  REACTION COORDINATE VECTOR


   1    C         -0.00542       0.08745      -0.15070
   2    C         -0.00621       0.03813       0.04855
   3    C         -0.01220      -0.11898       0.40977
   4    C         -0.02577       0.14972      -0.54534
   5    C         -0.01190      -0.13451       0.40719
   6    C         -0.00591       0.02260       0.04596
   7    H          0.00962      -0.13299      -0.22199
   8    H          0.01075      -0.20012      -0.06643
   9    H         -0.00165      -0.04455      -0.09266
  10    H         -0.01100       0.32026       0.06856
  11    H         -0.00743      -0.40020       0.38992
  12    H         -0.01696      -0.02543       0.55280
  13    H          0.10050       0.98195      -0.96836
  14    H          0.01898      -0.30775      -0.78159
  15    H         -0.00711      -0.41664       0.38718
  16    H         -0.01646      -0.05182       0.54840
  17    H         -0.00115      -0.07095      -0.09706
  18    H         -0.01068       0.30383       0.06582
 *+*+*+*+*+*+*+*+*+*+*+*+*+*+*+*+*+*+*+*+*+*+*+*+*+*+*+*+*+*+*+*+*+*+*+*+*+*+*+*+
            BAR SHORTENED BY       0.000 PERCENT
 GRADIENT CRITERION IN FLEPO =     0.200
           THERE HAVE BEEN 3 ATTEMPTS TO REDUCE THE GRADIENT.
           DURING THESE ATTEMPTS THE ENERGY DROPPED BY LESS THAN 0.0 KCAL/MOLE
           FURTHER CALCULATION IS NOT JUSTIFIED AT THIS TIME.


          FOR POINT    1 SECOND STRUCTURE
 DISTANCE A - B      2.220015
 HEAT              -20.250558
 GRADIENT NORM       4.600314
 DIRECTION COSINE   -0.000000
 GEO-OK CHARGE=0 SINGLET  PM7 PRECISE
 Cyklohexan, lodicka, TS

  C(          1          X    )   0.00000000 +0    0.0000000 +0    0.0000000 +0
  C(          2          X    )   1.52985872 +1    0.0000000 +0    0.0000000 +0     1     0     0
  C(          3          X    )   1.53052255 +1  110.7964603 +1    0.0000000 +0     2     1     0
  C(          4          X    )   1.54177825 +1  115.9961249 +1   34.5612653 +1     3     2     1
  C(          5          X    )   1.54377379 +1  119.9563303 +1   -3.9151091 +1     4     3     2
  C(          6          X    )   1.52901010 +1  107.7040175 +1  -66.9041723 +1     1     2     3
  H(          7          X    )   1.10262077 +1  110.5430132 +1  171.5768689 +1     1     2     3
  H(          8          X    )   1.10867649 +1  110.9056647 +1   54.0669157 +1     1     2     3
  H(          9          X    )   1.10605185 +1  110.6861172 +1 -121.7804890 +1     2     1     3
  H(         10          X    )   1.10711616 +1  109.5314366 +1  121.9692760 +1     2     1     3
  H(         11          X    )   1.10804092 +1  108.4798292 +1  -88.1550895 +1     3     2     1
  H(         12          X    )   1.10833160 +1  108.7129952 +1  157.7403165 +1     3     2     1
  H(         13          X    )   1.10879135 +1  107.4167943 +1 -126.2076967 +1     4     3     2
  H(         14          X    )   1.10730353 +1  108.1073183 +1  120.8686868 +1     4     3     2
  H(         15          X    )   1.10855430 +1  108.4885494 +1 -117.9754916 +1     5     4     3
  H(         16          X    )   1.10722883 +1  108.7988989 +1  127.9349505 +1     5     4     3
  H(         17          X    )   1.10515952 +1  110.8854701 +1 -171.0848002 +1     6     1     2
  H(         18          X    )   1.10663139 +1  110.1794034 +1  -54.7268288 +1     6     1     2
 
 TIME=     2.15
  REACTANTS AND PRODUCTS SWAPPED AROUND
 *+*+*+*+*+*+*+*+*+*+*+*+*+*+*+*+*+*+*+*+*+*+*+*+*+*+*+*+*+*+*+*+*+*+*+*+*+*+*+*+
            BAR SHORTENED BY       1.000 PERCENT
 GRADIENT CRITERION IN FLEPO =     0.320


          FOR POINT    2 FIRST  STRUCTURE
 DISTANCE A - B      2.197815
 HEAT              -27.407504
 GRADIENT NORM       0.689655
 DIRECTION COSINE   -0.161164
 GEO-OK CHARGE=0 SINGLET  PM7 PRECISE
 Cyklohexan, lodicka, TS

  C(          1          X    )   0.00000000 +0    0.0000000 +0    0.0000000 +0
  C(          2          X    )   1.53454514 +1    0.0000000 +0    0.0000000 +0     1     0     0
  C(          3          X    )   1.53478038 +1  110.4158737 +1    0.0000000 +0     2     1     0
  C(          4          X    )   1.53496754 +1  110.8568217 +1   57.0696390 +1     3     2     1
  C(          5          X    )   1.53527320 +1  111.0299723 +1  -55.7459565 +1     4     3     2
  C(          6          X    )   1.53466051 +1  110.2055848 +1  -58.3046561 +1     1     2     3
  H(          7          X    )   1.10427803 +1  110.2637011 +1  179.7651812 +1     1     2     3
  H(          8          X    )   1.10558089 +1  109.9442574 +1   63.0435295 +1     1     2     3
  H(          9          X    )   1.10464519 +1  110.2012897 +1 -121.8924660 +1     2     1     3
  H(         10          X    )   1.10572024 +1  109.8946667 +1  121.4437040 +1     2     1     3
  H(         11          X    )   1.10561960 +1  109.8308343 +1  -64.5372755 +1     3     2     1
  H(         12          X    )   1.10503069 +1  109.9938339 +1  178.9558390 +1     3     2     1
  H(         13          X    )   1.10525599 +1  109.8847964 +1 -177.4892249 +1     4     3     2
  H(         14          X    )   1.10538819 +1  109.8583423 +1   66.0206490 +1     4     3     2
  H(         15          X    )   1.10565261 +1  109.8565046 +1  -65.8901540 +1     5     4     3
  H(         16          X    )   1.10507963 +1  109.9948949 +1  177.6066276 +1     5     4     3
  H(         17          X    )   1.10473443 +1  110.1906951 +1 -179.8251762 +1     6     1     2
  H(         18          X    )   1.10566201 +1  109.8873396 +1  -63.2063319 +1     6     1     2
 
 *+*+*+*+*+*+*+*+*+*+*+*+*+*+*+*+*+*+*+*+*+*+*+*+*+*+*+*+*+*+*+*+*+*+*+*+*+*+*+*+
            BAR SHORTENED BY       1.000 PERCENT
 GRADIENT CRITERION IN FLEPO =     0.320


          FOR POINT    3 FIRST  STRUCTURE
 DISTANCE A - B      2.175837
 HEAT              -27.393121
 GRADIENT NORM       1.137218
 DIRECTION COSINE    0.539838
 GEO-OK CHARGE=0 SINGLET  PM7 PRECISE
 Cyklohexan, lodicka, TS

  C(          1          X    )   0.00000000 +0    0.0000000 +0    0.0000000 +0
  C(          2          X    )   1.53443964 +1    0.0000000 +0    0.0000000 +0     1     0     0
  C(          3          X    )   1.53444866 +1  110.4008744 +1    0.0000000 +0     2     1     0
  C(          4          X    )   1.53490464 +1  110.8860945 +1   56.9106564 +1     3     2     1
  C(          5          X    )   1.53490261 +1  111.2555319 +1  -55.3660362 +1     4     3     2
  C(          6          X    )   1.53445608 +1  110.9112652 +1   55.3140084 +1     5     4     3
  H(          7          X    )   1.10432449 +1  110.2659540 +1  179.6239026 +1     1     2     3
  H(          8          X    )   1.10587309 +1  109.9606371 +1   62.8747159 +1     1     2     3
  H(          9          X    )   1.10497488 +1  110.2128531 +1 -121.8951824 +1     2     1     3
  H(         10          X    )   1.10576708 +1  109.8820156 +1  121.4978152 +1     2     1     3
  H(         11          X    )   1.10557872 +1  109.8532791 +1  -64.7950070 +1     3     2     1
  H(         12          X    )   1.10541423 +1  110.0306339 +1  178.6864043 +1     3     2     1
  H(         13          X    )   1.10532608 +1  109.7881971 +1 -177.1809871 +1     4     3     2
  H(         14          X    )   1.10508581 +1  109.7744746 +1   66.5409310 +1     4     3     2
  H(         15          X    )   1.10573999 +1  109.9313992 +1  -66.3372340 +1     5     4     3
  H(         16          X    )   1.10541510 +1  109.8881299 +1  177.2000955 +1     5     4     3
  H(         17          X    )   1.10447098 +1  110.0918202 +1 -178.6909008 +1     6     5     4
  H(         18          X    )   1.10555081 +1  109.9668074 +1   64.6392891 +1     6     5     4
 
 *+*+*+*+*+*+*+*+*+*+*+*+*+*+*+*+*+*+*+*+*+*+*+*+*+*+*+*+*+*+*+*+*+*+*+*+*+*+*+*+
            BAR SHORTENED BY       1.000 PERCENT
 GRADIENT CRITERION IN FLEPO =     0.320
           THERE HAVE BEEN 3 ATTEMPTS TO REDUCE THE GRADIENT.
           DURING THESE ATTEMPTS THE ENERGY DROPPED BY LESS THAN 0.0 KCAL/MOLE
           FURTHER CALCULATION IS NOT JUSTIFIED AT THIS TIME.


          FOR POINT    4 FIRST  STRUCTURE
 DISTANCE A - B      2.154079
 HEAT              -27.376226
 GRADIENT NORM       1.337719
 DIRECTION COSINE    0.434215
 GEO-OK CHARGE=0 SINGLET  PM7 PRECISE
 Cyklohexan, lodicka, TS

  C(          1          X    )   0.00000000 +0    0.0000000 +0    0.0000000 +0
  C(          2          X    )   1.53456894 +1    0.0000000 +0    0.0000000 +0     1     0     0
  C(          3          X    )   1.53476131 +1  110.4000344 +1    0.0000000 +0     2     1     0
  C(          4          X    )   1.53512805 +1  110.9558633 +1   56.7282598 +1     3     2     1
  C(          5          X    )   1.53471814 +1  111.4447731 +1  -54.9511506 +1     4     3     2
  C(          6          X    )   1.53422419 +1  110.1965181 +1  -58.6081631 +1     1     2     3
  H(          7          X    )   1.10478135 +1  110.2497670 +1  179.4634732 +1     1     2     3
  H(          8          X    )   1.10589497 +1  109.9103229 +1   62.6905751 +1     1     2     3
  H(          9          X    )   1.10452405 +1  110.2525079 +1 -121.8647985 +1     2     1     3
  H(         10          X    )   1.10562478 +1  109.8610510 +1  121.4568604 +1     2     1     3
  H(         11          X    )   1.10556963 +1  109.8297709 +1  -65.0581815 +1     3     2     1
  H(         12          X    )   1.10522941 +1  110.0124012 +1  178.3961770 +1     3     2     1
  H(         13          X    )   1.10511065 +1  109.7488410 +1 -176.7982754 +1     4     3     2
  H(         14          X    )   1.10564324 +1  109.7189689 +1   66.9522584 +1     4     3     2
  H(         15          X    )   1.10557075 +1  109.8935011 +1  -66.7811862 +1     5     4     3
  H(         16          X    )   1.10517704 +1  109.8320742 +1  176.7300666 +1     5     4     3
  H(         17          X    )   1.10480448 +1  110.1917761 +1 -179.5513178 +1     6     1     2
  H(         18          X    )   1.10534432 +1  109.9008393 +1  -62.9429364 +1     6     1     2
 
 TIME=     1.48
  REACTANTS AND PRODUCTS SWAPPED AROUND
 *+*+*+*+*+*+*+*+*+*+*+*+*+*+*+*+*+*+*+*+*+*+*+*+*+*+*+*+*+*+*+*+*+*+*+*+*+*+*+*+
            BAR SHORTENED BY       0.000 PERCENT
 GRADIENT CRITERION IN FLEPO =     0.320


          FOR POINT    5 SECOND STRUCTURE
 DISTANCE A - B      2.154079
 HEAT              -27.431610
 GRADIENT NORM       0.896685
 DIRECTION COSINE    0.261330
 GEO-OK CHARGE=0 SINGLET  PM7 PRECISE
 Cyklohexan, lodicka, TS

  C(          1          X    )   0.00000000 +0    0.0000000 +0    0.0000000 +0
  C(          2          X    )   1.53511551 +1    0.0000000 +0    0.0000000 +0     1     0     0
  C(          3          X    )   1.53511240 +1  110.5125692 +1    0.0000000 +0     2     1     0
  C(          4          X    )   1.53482167 +1  110.5079845 +1   57.4830426 +1     3     2     1
  C(          5          X    )   1.53500223 +1  110.4561672 +1  -57.3475940 +1     4     3     2
  C(          6          X    )   1.53497865 +1  110.4232348 +1  -57.4653747 +1     1     2     3
  H(          7          X    )   1.10475404 +1  110.2718743 +1 -179.4440895 +1     1     2     3
  H(          8          X    )   1.10578698 +1  109.9006295 +1   63.9960558 +1     1     2     3
  H(          9          X    )   1.10494356 +1  110.1587267 +1 -121.9262395 +1     2     1     3
  H(         10          X    )   1.10609477 +1  109.9204854 +1  121.3983324 +1     2     1     3
  H(         11          X    )   1.10548815 +1  109.8968630 +1  -64.0001757 +1     3     2     1
  H(         12          X    )   1.10448494 +1  110.1335801 +1  179.3746925 +1     3     2     1
  H(         13          X    )   1.10483126 +1  110.1415476 +1 -179.1676755 +1     4     3     2
  H(         14          X    )   1.10569792 +1  109.9305537 +1   64.0787121 +1     4     3     2
  H(         15          X    )   1.10573310 +1  109.9420845 +1  -64.1445515 +1     5     4     3
  H(         16          X    )   1.10454341 +1  110.0697433 +1  179.1779074 +1     5     4     3
  H(         17          X    )   1.10484715 +1  110.1331879 +1  179.3046613 +1     6     1     2
  H(         18          X    )   1.10564355 +1  109.8873473 +1  -64.0546844 +1     6     1     2
 
 *+*+*+*+*+*+*+*+*+*+*+*+*+*+*+*+*+*+*+*+*+*+*+*+*+*+*+*+*+*+*+*+*+*+*+*+*+*+*+*+
            BAR SHORTENED BY       1.000 PERCENT
 GRADIENT CRITERION IN FLEPO =     0.320


          FOR POINT    6 SECOND STRUCTURE
 DISTANCE A - B      2.132538
 HEAT              -27.432580
 GRADIENT NORM       0.563339
 DIRECTION COSINE    0.241149
 GEO-OK CHARGE=0 SINGLET  PM7 PRECISE
 Cyklohexan, lodicka, TS

  C(          1          X    )   0.00000000 +0    0.0000000 +0    0.0000000 +0
  C(          2          X    )   1.53484575 +1    0.0000000 +0    0.0000000 +0     1     0     0
  C(          3          X    )   1.53489773 +1  110.5148714 +1    0.0000000 +0     2     1     0
  C(          4          X    )   1.53487080 +1  110.4942551 +1   57.4373245 +1     3     2     1
  C(          5          X    )   1.53515941 +1  110.5257152 +1  -57.2875538 +1     4     3     2
  C(          6          X    )   1.53483412 +1  110.4494382 +1  -57.4984136 +1     1     2     3
  H(          7          X    )   1.10490752 +1  110.1448600 +1 -179.4549157 +1     1     2     3
  H(          8          X    )   1.10566274 +1  109.9263871 +1   63.9678695 +1     1     2     3
  H(          9          X    )   1.10461197 +1  110.1501934 +1 -121.9147745 +1     2     1     3
  H(         10          X    )   1.10571216 +1  109.8953078 +1  121.4290572 +1     2     1     3
  H(         11          X    )   1.10561816 +1  109.8818660 +1  -63.9969024 +1     3     2     1
  H(         12          X    )   1.10470607 +1  110.1543959 +1  179.3544331 +1     3     2     1
  H(         13          X    )   1.10474490 +1  110.1264434 +1 -179.1808110 +1     4     3     2
  H(         14          X    )   1.10573256 +1  109.8886490 +1   64.1663762 +1     4     3     2
  H(         15          X    )   1.10560451 +1  109.8759140 +1  -64.1691646 +1     5     4     3
  H(         16          X    )   1.10432339 +1  110.1171828 +1  179.1742559 +1     5     4     3
  H(         17          X    )   1.10461154 +1  110.1619050 +1  179.3030589 +1     6     1     2
  H(         18          X    )   1.10568887 +1  109.9271510 +1  -64.0301883 +1     6     1     2
 
 *+*+*+*+*+*+*+*+*+*+*+*+*+*+*+*+*+*+*+*+*+*+*+*+*+*+*+*+*+*+*+*+*+*+*+*+*+*+*+*+
            BAR SHORTENED BY       1.000 PERCENT
 GRADIENT CRITERION IN FLEPO =     0.320


          FOR POINT    7 SECOND STRUCTURE
 DISTANCE A - B      2.111213
 HEAT              -27.432714
 GRADIENT NORM       0.581210
 DIRECTION COSINE   -0.405734
 GEO-OK CHARGE=0 SINGLET  PM7 PRECISE
 Cyklohexan, lodicka, TS

  C(          1          X    )   0.00000000 +0    0.0000000 +0    0.0000000 +0
  C(          2          X    )   1.53516165 +1    0.0000000 +0    0.0000000 +0     1     0     0
  C(          3          X    )   1.53504245 +1  110.5045472 +1    0.0000000 +0     2     1     0
  C(          4          X    )   1.53484258 +1  110.5109048 +1   57.3927958 +1     3     2     1
  C(          5          X    )   1.53476840 +1  110.5409666 +1  -57.2627206 +1     4     3     2
  C(          6          X    )   1.53496978 +1  110.5779656 +1   57.2411014 +1     5     4     3
  H(          7          X    )   1.10466577 +1  110.1629526 +1 -179.3989262 +1     1     2     3
  H(          8          X    )   1.10597535 +1  109.8821985 +1   63.9563667 +1     1     2     3
  H(          9          X    )   1.10446392 +1  110.1276742 +1 -121.9373360 +1     2     1     3
  H(         10          X    )   1.10587413 +1  109.8911815 +1  121.4063026 +1     2     1     3
  H(         11          X    )   1.10581827 +1  109.8629866 +1  -64.0493153 +1     3     2     1
  H(         12          X    )   1.10463058 +1  110.1393203 +1  179.3312886 +1     3     2     1
  H(         13          X    )   1.10493758 +1  110.1421730 +1 -179.2076194 +1     4     3     2
  H(         14          X    )   1.10593786 +1  109.8911622 +1   64.1850341 +1     4     3     2
  H(         15          X    )   1.10580735 +1  109.8869346 +1  -64.2061400 +1     5     4     3
  H(         16          X    )   1.10486638 +1  110.1260025 +1  179.1655679 +1     5     4     3
  H(         17          X    )   1.10476881 +1  110.1420318 +1 -179.2297336 +1     6     5     4
  H(         18          X    )   1.10580882 +1  109.8820824 +1   64.1343485 +1     6     5     4
 
 TIME=     3.30
  REACTANTS AND PRODUCTS SWAPPED AROUND
 *+*+*+*+*+*+*+*+*+*+*+*+*+*+*+*+*+*+*+*+*+*+*+*+*+*+*+*+*+*+*+*+*+*+*+*+*+*+*+*+
            BAR SHORTENED BY       0.000 PERCENT
 GRADIENT CRITERION IN FLEPO =     0.320


          FOR POINT    8 FIRST  STRUCTURE
 DISTANCE A - B      2.111213
 HEAT              -27.430903
 GRADIENT NORM       0.925828
 DIRECTION COSINE    0.020766
 GEO-OK CHARGE=0 SINGLET  PM7 PRECISE
 Cyklohexan, lodicka, TS

  C(          1          X    )   0.00000000 +0    0.0000000 +0    0.0000000 +0
  C(          2          X    )   1.53491288 +1    0.0000000 +0    0.0000000 +0     1     0     0
  C(          3          X    )   1.53459765 +1  110.4653088 +1    0.0000000 +0     2     1     0
  C(          4          X    )   1.53483646 +1  110.4731013 +1   57.4629546 +1     3     2     1
  C(          5          X    )   1.53469982 +1  110.5394080 +1  -57.3923946 +1     4     3     2
  C(          6          X    )   1.53503968 +1  110.4783264 +1   57.3555018 +1     5     4     3
  H(          7          X    )   1.10444622 +1  110.2043463 +1 -179.4200767 +1     1     2     3
  H(          8          X    )   1.10540623 +1  109.9382648 +1   63.9405551 +1     1     2     3
  H(          9          X    )   1.10467885 +1  110.2138110 +1 -122.0446735 +1     2     1     3
  H(         10          X    )   1.10568495 +1  109.8868129 +1  121.3052760 +1     2     1     3
  H(         11          X    )   1.10546035 +1  109.9257276 +1  -64.0771072 +1     3     2     1
  H(         12          X    )   1.10449113 +1  110.1698381 +1  179.2040155 +1     3     2     1
  H(         13          X    )   1.10446558 +1  110.1551299 +1 -179.3688952 +1     4     3     2
  H(         14          X    )   1.10581965 +1  109.8725832 +1   64.0619383 +1     4     3     2
  H(         15          X    )   1.10596310 +1  109.9468196 +1  -64.1285665 +1     5     4     3
  H(         16          X    )   1.10493017 +1  110.0697110 +1  179.2179384 +1     5     4     3
  H(         17          X    )   1.10494339 +1  110.0979049 +1 -179.3410869 +1     6     5     4
  H(         18          X    )   1.10575505 +1  109.8816082 +1   63.9846097 +1     6     5     4
 
 TIME=     0.83
  REACTANTS AND PRODUCTS SWAPPED AROUND
 *+*+*+*+*+*+*+*+*+*+*+*+*+*+*+*+*+*+*+*+*+*+*+*+*+*+*+*+*+*+*+*+*+*+*+*+*+*+*+*+
            BAR SHORTENED BY       1.000 PERCENT
 GRADIENT CRITERION IN FLEPO =     0.320


          FOR POINT    9 SECOND STRUCTURE
 DISTANCE A - B      2.090100
 HEAT              -27.432541
 GRADIENT NORM       0.819270
 DIRECTION COSINE    0.004881
 GEO-OK CHARGE=0 SINGLET  PM7 PRECISE
 Cyklohexan, lodicka, TS

  C(          1          X    )   0.00000000 +0    0.0000000 +0    0.0000000 +0
  C(          2          X    )   1.53478879 +1    0.0000000 +0    0.0000000 +0     1     0     0
  C(          3          X    )   1.53489497 +1  110.5019684 +1    0.0000000 +0     2     1     0
  C(          4          X    )   1.53505935 +1  110.4882616 +1   57.4043074 +1     3     2     1
  C(          5          X    )   1.53539928 +1  110.5506710 +1  -57.2767146 +1     4     3     2
  C(          6          X    )   1.53480559 +1  110.4963636 +1  -57.4914208 +1     1     2     3
  H(          7          X    )   1.10456979 +1  110.1489537 +1 -179.4139757 +1     1     2     3
  H(          8          X    )   1.10577182 +1  109.9034765 +1   63.9502685 +1     1     2     3
  H(          9          X    )   1.10478150 +1  110.1458946 +1 -121.9164209 +1     2     1     3
  H(         10          X    )   1.10624648 +1  109.9016365 +1  121.4552671 +1     2     1     3
  H(         11          X    )   1.10613193 +1  109.8858496 +1  -64.0426708 +1     3     2     1
  H(         12          X    )   1.10460838 +1  110.1521518 +1  179.3207247 +1     3     2     1
  H(         13          X    )   1.10451032 +1  110.1328230 +1 -179.1870218 +1     4     3     2
  H(         14          X    )   1.10589335 +1  109.8830753 +1   64.1774734 +1     4     3     2
  H(         15          X    )   1.10613555 +1  109.8501389 +1  -64.1768943 +1     5     4     3
  H(         16          X    )   1.10474460 +1  110.1325995 +1  179.2083936 +1     5     4     3
  H(         17          X    )   1.10455523 +1  110.1657902 +1  179.3300227 +1     6     1     2
  H(         18          X    )   1.10585620 +1  109.9207113 +1  -64.0250669 +1     6     1     2
 
 *+*+*+*+*+*+*+*+*+*+*+*+*+*+*+*+*+*+*+*+*+*+*+*+*+*+*+*+*+*+*+*+*+*+*+*+*+*+*+*+
            BAR SHORTENED BY       1.000 PERCENT
 GRADIENT CRITERION IN FLEPO =     0.320


          FOR POINT   10 SECOND STRUCTURE
 DISTANCE A - B      2.069199
 HEAT              -27.432581
 GRADIENT NORM       0.688177
 DIRECTION COSINE    0.266502
 GEO-OK CHARGE=0 SINGLET  PM7 PRECISE
 Cyklohexan, lodicka, TS

  C(          1          X    )   0.00000000 +0    0.0000000 +0    0.0000000 +0
  C(          2          X    )   1.53502175 +1    0.0000000 +0    0.0000000 +0     1     0     0
  C(          3          X    )   1.53460354 +1  110.4866205 +1    0.0000000 +0     2     1     0
  C(          4          X    )   1.53477699 +1  110.4854744 +1   57.3856760 +1     3     2     1
  C(          5          X    )   1.53506998 +1  110.5685865 +1  -57.2932659 +1     4     3     2
  C(          6          X    )   1.53466676 +1  110.5394966 +1   57.2616417 +1     5     4     3
  H(          7          X    )   1.10479307 +1  110.1354222 +1 -179.4068928 +1     1     2     3
  H(          8          X    )   1.10560287 +1  109.8982520 +1   63.9619786 +1     1     2     3
  H(          9          X    )   1.10500146 +1  110.1658874 +1 -121.9485610 +1     2     1     3
  H(         10          X    )   1.10579594 +1  109.8852935 +1  121.4258570 +1     2     1     3
  H(         11          X    )   1.10555303 +1  109.9028487 +1  -64.0543091 +1     3     2     1
  H(         12          X    )   1.10471651 +1  110.1460174 +1  179.3039601 +1     3     2     1
  H(         13          X    )   1.10440193 +1  110.1132486 +1 -179.2005417 +1     4     3     2
  H(         14          X    )   1.10575093 +1  109.9210575 +1   64.1566946 +1     4     3     2
  H(         15          X    )   1.10566004 +1  109.8733996 +1  -64.1732759 +1     5     4     3
  H(         16          X    )   1.10456117 +1  110.1477019 +1  179.2040654 +1     5     4     3
  H(         17          X    )   1.10456750 +1  110.1328964 +1 -179.2188697 +1     6     5     4
  H(         18          X    )   1.10577561 +1  109.8910831 +1   64.1503787 +1     6     5     4
 
 *+*+*+*+*+*+*+*+*+*+*+*+*+*+*+*+*+*+*+*+*+*+*+*+*+*+*+*+*+*+*+*+*+*+*+*+*+*+*+*+
            BAR SHORTENED BY       1.000 PERCENT
 GRADIENT CRITERION IN FLEPO =     0.320


          FOR POINT   11 SECOND STRUCTURE
 DISTANCE A - B      2.048507
 HEAT              -27.432657
 GRADIENT NORM       0.611461
 DIRECTION COSINE   -0.357404
 GEO-OK CHARGE=0 SINGLET  PM7 PRECISE
 Cyklohexan, lodicka, TS

  C(          1          X    )   0.00000000 +0    0.0000000 +0    0.0000000 +0
  C(          2          X    )   1.53502517 +1    0.0000000 +0    0.0000000 +0     1     0     0
  C(          3          X    )   1.53495232 +1  110.5086048 +1    0.0000000 +0     2     1     0
  C(          4          X    )   1.53497990 +1  110.4730948 +1   57.3926397 +1     3     2     1
  C(          5          X    )   1.53490751 +1  110.5592382 +1  -57.3101133 +1     4     3     2
  C(          6          X    )   1.53495374 +1  110.5440022 +1   57.2969230 +1     5     4     3
  H(          7          X    )   1.10448533 +1  110.1653061 +1 -179.3989127 +1     1     2     3
  H(          8          X    )   1.10599424 +1  109.8568675 +1   63.9273009 +1     1     2     3
  H(          9          X    )   1.10461885 +1  110.1367963 +1 -121.9174469 +1     2     1     3
  H(         10          X    )   1.10574629 +1  109.9019168 +1  121.4278852 +1     2     1     3
  H(         11          X    )   1.10592376 +1  109.8838153 +1  -64.0468591 +1     3     2     1
  H(         12          X    )   1.10472272 +1  110.1533347 +1  179.3084038 +1     3     2     1
  H(         13          X    )   1.10504557 +1  110.0961975 +1 -179.2044193 +1     4     3     2
  H(         14          X    )   1.10589425 +1  109.8852711 +1   64.1861792 +1     4     3     2
  H(         15          X    )   1.10581595 +1  109.9002604 +1  -64.1522552 +1     5     4     3
  H(         16          X    )   1.10471815 +1  110.1382815 +1  179.2097662 +1     5     4     3
  H(         17          X    )   1.10468172 +1  110.1364703 +1 -179.2177054 +1     6     5     4
  H(         18          X    )   1.10571905 +1  109.8881697 +1   64.1522373 +1     6     5     4
 
 TIME=     0.65
  REACTANTS AND PRODUCTS SWAPPED AROUND
 *+*+*+*+*+*+*+*+*+*+*+*+*+*+*+*+*+*+*+*+*+*+*+*+*+*+*+*+*+*+*+*+*+*+*+*+*+*+*+*+
            BAR SHORTENED BY       0.000 PERCENT
 GRADIENT CRITERION IN FLEPO =     0.320


          FOR POINT   12 FIRST  STRUCTURE
 DISTANCE A - B      2.048507
 HEAT              -27.431962
 GRADIENT NORM       0.797012
 DIRECTION COSINE    0.190456
 GEO-OK CHARGE=0 SINGLET  PM7 PRECISE
 Cyklohexan, lodicka, TS

  C(          1          X    )   0.00000000 +0    0.0000000 +0    0.0000000 +0
  C(          2          X    )   1.53506780 +1    0.0000000 +0    0.0000000 +0     1     0     0
  C(          3          X    )   1.53511984 +1  110.4850797 +1    0.0000000 +0     2     1     0
  C(          4          X    )   1.53505121 +1  110.4788004 +1   57.4474648 +1     3     2     1
  C(          5          X    )   1.53499537 +1  110.5312427 +1  -57.3370121 +1     4     3     2
  C(          6          X    )   1.53484379 +1  110.5126924 +1   57.2980831 +1     5     4     3
  H(          7          X    )   1.10485391 +1  110.1300001 +1 -179.4411962 +1     1     2     3
  H(          8          X    )   1.10575027 +1  109.9102673 +1   63.9324943 +1     1     2     3
  H(          9          X    )   1.10448712 +1  110.1911863 +1 -121.9856222 +1     2     1     3
  H(         10          X    )   1.10597762 +1  109.9041850 +1  121.3783438 +1     2     1     3
  H(         11          X    )   1.10571205 +1  109.9132332 +1  -64.0388937 +1     3     2     1
  H(         12          X    )   1.10518486 +1  110.1512795 +1  179.2892540 +1     3     2     1
  H(         13          X    )   1.10450042 +1  110.1312150 +1 -179.2868218 +1     4     3     2
  H(         14          X    )   1.10583947 +1  109.8563384 +1   64.0305121 +1     4     3     2
  H(         15          X    )   1.10520371 +1  109.9003096 +1  -64.1755886 +1     5     4     3
  H(         16          X    )   1.10447142 +1  110.0778077 +1  179.2099997 +1     5     4     3
  H(         17          X    )   1.10448628 +1  110.1315955 +1 -179.3512038 +1     6     5     4
  H(         18          X    )   1.10581448 +1  109.8798215 +1   64.0315197 +1     6     5     4
 
 TIME=     0.20
  REACTANTS AND PRODUCTS SWAPPED AROUND
 *+*+*+*+*+*+*+*+*+*+*+*+*+*+*+*+*+*+*+*+*+*+*+*+*+*+*+*+*+*+*+*+*+*+*+*+*+*+*+*+
            BAR SHORTENED BY       1.000 PERCENT
 GRADIENT CRITERION IN FLEPO =     0.320


          FOR POINT   13 SECOND STRUCTURE
 DISTANCE A - B      2.028022
 HEAT              -27.432349
 GRADIENT NORM       0.789025
 DIRECTION COSINE   -0.015120
 GEO-OK CHARGE=0 SINGLET  PM7 PRECISE
 Cyklohexan, lodicka, TS

  C(          1          X    )   0.00000000 +0    0.0000000 +0    0.0000000 +0
  C(          2          X    )   1.53495841 +1    0.0000000 +0    0.0000000 +0     1     0     0
  C(          3          X    )   1.53450988 +1  110.5066243 +1    0.0000000 +0     2     1     0
  C(          4          X    )   1.53498096 +1  110.4803830 +1   57.3986037 +1     3     2     1
  C(          5          X    )   1.53521761 +1  110.5306498 +1  -57.3064902 +1     4     3     2
  C(          6          X    )   1.53451390 +1  110.5582998 +1   57.2960685 +1     5     4     3
  H(          7          X    )   1.10421405 +1  110.1598204 +1 -179.4018797 +1     1     2     3
  H(          8          X    )   1.10567037 +1  109.8671133 +1   63.9317610 +1     1     2     3
  H(          9          X    )   1.10471657 +1  110.1558630 +1 -121.9350541 +1     2     1     3
  H(         10          X    )   1.10563490 +1  109.9078394 +1  121.4320227 +1     2     1     3
  H(         11          X    )   1.10569895 +1  109.8852710 +1  -64.0460033 +1     3     2     1
  H(         12          X    )   1.10469703 +1  110.1533388 +1  179.3074367 +1     3     2     1
  H(         13          X    )   1.10438649 +1  110.0988811 +1 -179.1820798 +1     4     3     2
  H(         14          X    )   1.10529880 +1  109.8700932 +1   64.1552721 +1     4     3     2
  H(         15          X    )   1.10578910 +1  109.9086960 +1  -64.1689141 +1     5     4     3
  H(         16          X    )   1.10446666 +1  110.1284674 +1  179.2066559 +1     5     4     3
  H(         17          X    )   1.10471539 +1  110.1414760 +1 -179.2318927 +1     6     5     4
  H(         18          X    )   1.10546479 +1  109.8849309 +1   64.1331519 +1     6     5     4
 
 TIME=     0.21
  REACTANTS AND PRODUCTS SWAPPED AROUND
 *+*+*+*+*+*+*+*+*+*+*+*+*+*+*+*+*+*+*+*+*+*+*+*+*+*+*+*+*+*+*+*+*+*+*+*+*+*+*+*+
            BAR SHORTENED BY       1.000 PERCENT
 GRADIENT CRITERION IN FLEPO =     0.320


          FOR POINT   14 FIRST  STRUCTURE
 DISTANCE A - B      2.007742
 HEAT              -27.432324
 GRADIENT NORM       0.536376
 DIRECTION COSINE    0.215407
 GEO-OK CHARGE=0 SINGLET  PM7 PRECISE
 Cyklohexan, lodicka, TS

  C(          1          X    )   0.00000000 +0    0.0000000 +0    0.0000000 +0
  C(          2          X    )   1.53514068 +1    0.0000000 +0    0.0000000 +0     1     0     0
  C(          3          X    )   1.53488222 +1  110.5052895 +1    0.0000000 +0     2     1     0
  C(          4          X    )   1.53476964 +1  110.4569896 +1   57.4447170 +1     3     2     1
  C(          5          X    )   1.53473236 +1  110.5567135 +1  -57.3334538 +1     4     3     2
  C(          6          X    )   1.53490391 +1  110.5234653 +1   57.3089617 +1     5     4     3
  H(          7          X    )   1.10465897 +1  110.1600255 +1 -179.4270466 +1     1     2     3
  H(          8          X    )   1.10568294 +1  109.9180566 +1   63.8957164 +1     1     2     3
  H(          9          X    )   1.10459955 +1  110.1653056 +1 -121.9502928 +1     2     1     3
  H(         10          X    )   1.10593795 +1  109.8788087 +1  121.4174411 +1     2     1     3
  H(         11          X    )   1.10564688 +1  109.9049241 +1  -64.0132599 +1     3     2     1
  H(         12          X    )   1.10461231 +1  110.1591271 +1  179.3153244 +1     3     2     1
  H(         13          X    )   1.10458118 +1  110.1631648 +1 -179.2506234 +1     4     3     2
  H(         14          X    )   1.10600642 +1  109.8718962 +1   64.0866558 +1     4     3     2
  H(         15          X    )   1.10551753 +1  109.9225893 +1  -64.1526140 +1     5     4     3
  H(         16          X    )   1.10467902 +1  110.1067425 +1  179.2075165 +1     5     4     3
  H(         17          X    )   1.10468136 +1  110.1421838 +1 -179.2954480 +1     6     5     4
  H(         18          X    )   1.10577347 +1  109.8633373 +1   64.0824230 +1     6     5     4
 
 TIME=     0.34
  REACTANTS AND PRODUCTS SWAPPED AROUND
 *+*+*+*+*+*+*+*+*+*+*+*+*+*+*+*+*+*+*+*+*+*+*+*+*+*+*+*+*+*+*+*+*+*+*+*+*+*+*+*+
            BAR SHORTENED BY       1.000 PERCENT
 GRADIENT CRITERION IN FLEPO =     0.320


          FOR POINT   15 SECOND STRUCTURE
 DISTANCE A - B      1.987665
 HEAT              -27.432597
 GRADIENT NORM       0.505188
 DIRECTION COSINE   -0.361786
 GEO-OK CHARGE=0 SINGLET  PM7 PRECISE
 Cyklohexan, lodicka, TS

  C(          1          X    )   0.00000000 +0    0.0000000 +0    0.0000000 +0
  C(          2          X    )   1.53504192 +1    0.0000000 +0    0.0000000 +0     1     0     0
  C(          3          X    )   1.53476439 +1  110.4910239 +1    0.0000000 +0     2     1     0
  C(          4          X    )   1.53482028 +1  110.4707428 +1   57.3820081 +1     3     2     1
  C(          5          X    )   1.53486625 +1  110.5673324 +1  -57.3086882 +1     4     3     2
  C(          6          X    )   1.53474936 +1  110.5477565 +1   57.3036102 +1     5     4     3
  H(          7          X    )   1.10454879 +1  110.1291630 +1 -179.4038591 +1     1     2     3
  H(          8          X    )   1.10582483 +1  109.8905434 +1   63.9447140 +1     1     2     3
  H(          9          X    )   1.10429609 +1  110.1302837 +1 -121.9234045 +1     2     1     3
  H(         10          X    )   1.10588212 +1  109.8841080 +1  121.4369019 +1     2     1     3
  H(         11          X    )   1.10571302 +1  109.8770471 +1  -64.0621349 +1     3     2     1
  H(         12          X    )   1.10454937 +1  110.1640498 +1  179.3046791 +1     3     2     1
  H(         13          X    )   1.10470174 +1  110.1289105 +1 -179.1941994 +1     4     3     2
  H(         14          X    )   1.10578488 +1  109.8773713 +1   64.1637296 +1     4     3     2
  H(         15          X    )   1.10582007 +1  109.8848423 +1  -64.1606885 +1     5     4     3
  H(         16          X    )   1.10465300 +1  110.1477545 +1  179.2386132 +1     5     4     3
  H(         17          X    )   1.10472325 +1  110.1499856 +1 -179.2157355 +1     6     5     4
  H(         18          X    )   1.10579214 +1  109.8868095 +1   64.1453542 +1     6     5     4
 
 TIME=     0.28
  REACTANTS AND PRODUCTS SWAPPED AROUND
 *+*+*+*+*+*+*+*+*+*+*+*+*+*+*+*+*+*+*+*+*+*+*+*+*+*+*+*+*+*+*+*+*+*+*+*+*+*+*+*+
            BAR SHORTENED BY       1.000 PERCENT
 GRADIENT CRITERION IN FLEPO =     0.320


          FOR POINT   16 FIRST  STRUCTURE
 DISTANCE A - B      1.967788
 HEAT              -27.432317
 GRADIENT NORM       0.694117
 DIRECTION COSINE   -0.062252
 GEO-OK CHARGE=0 SINGLET  PM7 PRECISE
 Cyklohexan, lodicka, TS

  C(          1          X    )   0.00000000 +0    0.0000000 +0    0.0000000 +0
  C(          2          X    )   1.53516224 +1    0.0000000 +0    0.0000000 +0     1     0     0
  C(          3          X    )   1.53474683 +1  110.4854853 +1    0.0000000 +0     2     1     0
  C(          4          X    )   1.53488422 +1  110.4699681 +1   57.4364502 +1     3     2     1
  C(          5          X    )   1.53508953 +1  110.5409610 +1  -57.3334604 +1     4     3     2
  C(          6          X    )   1.53476975 +1  110.5265152 +1   57.3088410 +1     5     4     3
  H(          7          X    )   1.10450570 +1  110.1531389 +1 -179.4231369 +1     1     2     3
  H(          8          X    )   1.10564231 +1  109.9223002 +1   63.9177739 +1     1     2     3
  H(          9          X    )   1.10453389 +1  110.1671397 +1 -121.9449788 +1     2     1     3
  H(         10          X    )   1.10579309 +1  109.8274103 +1  121.4704664 +1     2     1     3
  H(         11          X    )   1.10552826 +1  109.8963974 +1  -64.0241523 +1     3     2     1
  H(         12          X    )   1.10475554 +1  110.1475501 +1  179.3194897 +1     3     2     1
  H(         13          X    )   1.10433441 +1  110.1405415 +1 -179.2433200 +1     4     3     2
  H(         14          X    )   1.10573258 +1  109.8652274 +1   64.0823846 +1     4     3     2
  H(         15          X    )   1.10549925 +1  109.9094389 +1  -64.1441800 +1     5     4     3
  H(         16          X    )   1.10500101 +1  110.0909793 +1  179.2242002 +1     5     4     3
  H(         17          X    )   1.10465141 +1  110.1310797 +1 -179.2843384 +1     6     5     4
  H(         18          X    )   1.10561045 +1  109.8777046 +1   64.1106882 +1     6     5     4
 
 TIME=     0.20
  REACTANTS AND PRODUCTS SWAPPED AROUND
 *+*+*+*+*+*+*+*+*+*+*+*+*+*+*+*+*+*+*+*+*+*+*+*+*+*+*+*+*+*+*+*+*+*+*+*+*+*+*+*+
            BAR SHORTENED BY       1.000 PERCENT
 GRADIENT CRITERION IN FLEPO =     0.320


          FOR POINT   17 SECOND STRUCTURE
 DISTANCE A - B      1.948110
 HEAT              -27.432250
 GRADIENT NORM       0.958051
 DIRECTION COSINE   -0.255696
 GEO-OK CHARGE=0 SINGLET  PM7 PRECISE
 Cyklohexan, lodicka, TS

  C(          1          X    )   0.00000000 +0    0.0000000 +0    0.0000000 +0
  C(          2          X    )   1.53513521 +1    0.0000000 +0    0.0000000 +0     1     0     0
  C(          3          X    )   1.53487027 +1  110.5060583 +1    0.0000000 +0     2     1     0
  C(          4          X    )   1.53532997 +1  110.4777673 +1   57.4099320 +1     3     2     1
  C(          5          X    )   1.53538259 +1  110.5329677 +1  -57.3041772 +1     4     3     2
  C(          6          X    )   1.53494326 +1  110.5472101 +1   57.2949635 +1     5     4     3
  H(          7          X    )   1.10528998 +1  110.1419232 +1 -179.4121063 +1     1     2     3
  H(          8          X    )   1.10570364 +1  109.8564752 +1   63.9170709 +1     1     2     3
  H(          9          X    )   1.10483657 +1  110.1243345 +1 -121.9341088 +1     2     1     3
  H(         10          X    )   1.10569906 +1  109.8982759 +1  121.4944013 +1     2     1     3
  H(         11          X    )   1.10584044 +1  109.8824948 +1  -64.0501063 +1     3     2     1
  H(         12          X    )   1.10478967 +1  110.1627438 +1  179.3138558 +1     3     2     1
  H(         13          X    )   1.10511290 +1  110.1294159 +1 -179.2079651 +1     4     3     2
  H(         14          X    )   1.10562056 +1  109.8758577 +1   64.1016516 +1     4     3     2
  H(         15          X    )   1.10568033 +1  109.8797739 +1  -64.1506753 +1     5     4     3
  H(         16          X    )   1.10498514 +1  110.1138761 +1  179.2091736 +1     5     4     3
  H(         17          X    )   1.10462956 +1  110.1318155 +1 -179.2260380 +1     6     5     4
  H(         18          X    )   1.10570199 +1  109.9468077 +1   64.1161238 +1     6     5     4
 
 TIME=     0.20
  REACTANTS AND PRODUCTS SWAPPED AROUND
 *+*+*+*+*+*+*+*+*+*+*+*+*+*+*+*+*+*+*+*+*+*+*+*+*+*+*+*+*+*+*+*+*+*+*+*+*+*+*+*+
            BAR SHORTENED BY       1.000 PERCENT
 GRADIENT CRITERION IN FLEPO =     0.320


          FOR POINT   18 FIRST  STRUCTURE
 DISTANCE A - B      1.928629
 HEAT              -27.432489
 GRADIENT NORM       0.520332
 DIRECTION COSINE   -0.133463
 GEO-OK CHARGE=0 SINGLET  PM7 PRECISE
 Cyklohexan, lodicka, TS

  C(          1          X    )   0.00000000 +0    0.0000000 +0    0.0000000 +0
  C(          2          X    )   1.53507646 +1    0.0000000 +0    0.0000000 +0     1     0     0
  C(          3          X    )   1.53499837 +1  110.5030206 +1    0.0000000 +0     2     1     0
  C(          4          X    )   1.53479527 +1  110.4558800 +1   57.4172052 +1     3     2     1
  C(          5          X    )   1.53485638 +1  110.5767798 +1  -57.3136886 +1     4     3     2
  C(          6          X    )   1.53486189 +1  110.5190489 +1   57.3006083 +1     5     4     3
  H(          7          X    )   1.10460006 +1  110.1602623 +1 -179.4176450 +1     1     2     3
  H(          8          X    )   1.10570820 +1  109.9146898 +1   63.8885120 +1     1     2     3
  H(          9          X    )   1.10455288 +1  110.1675561 +1 -121.9110515 +1     2     1     3
  H(         10          X    )   1.10583399 +1  109.8874184 +1  121.4483624 +1     2     1     3
  H(         11          X    )   1.10570992 +1  109.8825952 +1  -64.0221229 +1     3     2     1
  H(         12          X    )   1.10460562 +1  110.1656097 +1  179.3376081 +1     3     2     1
  H(         13          X    )   1.10471936 +1  110.1177685 +1 -179.2361851 +1     4     3     2
  H(         14          X    )   1.10572769 +1  109.8496730 +1   64.1383407 +1     4     3     2
  H(         15          X    )   1.10565184 +1  109.8896644 +1  -64.1414151 +1     5     4     3
  H(         16          X    )   1.10451970 +1  110.1161886 +1  179.2326470 +1     5     4     3
  H(         17          X    )   1.10455451 +1  110.1266428 +1 -179.2432177 +1     6     5     4
  H(         18          X    )   1.10570029 +1  109.8846221 +1   64.1007661 +1     6     5     4
 
 TIME=     0.25
  REACTANTS AND PRODUCTS SWAPPED AROUND
 *+*+*+*+*+*+*+*+*+*+*+*+*+*+*+*+*+*+*+*+*+*+*+*+*+*+*+*+*+*+*+*+*+*+*+*+*+*+*+*+
            BAR SHORTENED BY       1.000 PERCENT
 GRADIENT CRITERION IN FLEPO =     0.320


          FOR POINT   19 SECOND STRUCTURE
 DISTANCE A - B      1.909343
 HEAT              -27.432747
 GRADIENT NORM       0.495409
 DIRECTION COSINE   -0.417021
 GEO-OK CHARGE=0 SINGLET  PM7 PRECISE
 Cyklohexan, lodicka, TS

  C(          1          X    )   0.00000000 +0    0.0000000 +0    0.0000000 +0
  C(          2          X    )   1.53477503 +1    0.0000000 +0    0.0000000 +0     1     0     0
  C(          3          X    )   1.53501410 +1  110.4934487 +1    0.0000000 +0     2     1     0
  C(          4          X    )   1.53489273 +1  110.4844871 +1   57.3834792 +1     3     2     1
  C(          5          X    )   1.53482806 +1  110.5636842 +1  -57.2929952 +1     4     3     2
  C(          6          X    )   1.53503716 +1  110.5193959 +1  -57.4737888 +1     1     2     3
  H(          7          X    )   1.10446425 +1  110.1446614 +1 -179.4012723 +1     1     2     3
  H(          8          X    )   1.10593081 +1  109.8911758 +1   63.9368860 +1     1     2     3
  H(          9          X    )   1.10478253 +1  110.1306872 +1 -121.9180570 +1     2     1     3
  H(         10          X    )   1.10583137 +1  109.8973554 +1  121.4392603 +1     2     1     3
  H(         11          X    )   1.10576287 +1  109.8932444 +1  -64.0633873 +1     3     2     1
  H(         12          X    )   1.10460597 +1  110.1539259 +1  179.3123685 +1     3     2     1
  H(         13          X    )   1.10484160 +1  110.1293610 +1 -179.2438158 +1     4     3     2
  H(         14          X    )   1.10584993 +1  109.8579586 +1   64.1403321 +1     4     3     2
  H(         15          X    )   1.10570916 +1  109.8784754 +1  -64.1607348 +1     5     4     3
  H(         16          X    )   1.10459351 +1  110.1344268 +1  179.2187759 +1     5     4     3
  H(         17          X    )   1.10464195 +1  110.1784147 +1  179.3010369 +1     6     1     2
  H(         18          X    )   1.10581755 +1  109.9077368 +1  -64.0446618 +1     6     1     2
 
 TIME=     0.25
  REACTANTS AND PRODUCTS SWAPPED AROUND
 *+*+*+*+*+*+*+*+*+*+*+*+*+*+*+*+*+*+*+*+*+*+*+*+*+*+*+*+*+*+*+*+*+*+*+*+*+*+*+*+
            BAR SHORTENED BY       1.000 PERCENT
 GRADIENT CRITERION IN FLEPO =     0.320


          FOR POINT   20 FIRST  STRUCTURE
 DISTANCE A - B      1.890249
 HEAT              -27.432273
 GRADIENT NORM       0.774543
 DIRECTION COSINE   -0.142317
 GEO-OK CHARGE=0 SINGLET  PM7 PRECISE
 Cyklohexan, lodicka, TS

  C(          1          X    )   0.00000000 +0    0.0000000 +0    0.0000000 +0
  C(          2          X    )   1.53510264 +1    0.0000000 +0    0.0000000 +0     1     0     0
  C(          3          X    )   1.53465097 +1  110.4945487 +1    0.0000000 +0     2     1     0
  C(          4          X    )   1.53463234 +1  110.4623618 +1   57.4027295 +1     3     2     1
  C(          5          X    )   1.53489299 +1  110.5747284 +1  -57.3092612 +1     4     3     2
  C(          6          X    )   1.53455674 +1  110.5268362 +1   57.2963963 +1     5     4     3
  H(          7          X    )   1.10440033 +1  110.1552448 +1 -179.4181895 +1     1     2     3
  H(          8          X    )   1.10556603 +1  109.9124521 +1   63.9048382 +1     1     2     3
  H(          9          X    )   1.10479780 +1  110.1633994 +1 -121.9275173 +1     2     1     3
  H(         10          X    )   1.10601253 +1  109.8788579 +1  121.4355303 +1     2     1     3
  H(         11          X    )   1.10573442 +1  109.8782247 +1  -64.0563342 +1     3     2     1
  H(         12          X    )   1.10460343 +1  110.1618814 +1  179.3245599 +1     3     2     1
  H(         13          X    )   1.10487081 +1  110.1256341 +1 -179.2383420 +1     4     3     2
  H(         14          X    )   1.10553736 +1  109.8503737 +1   64.1334945 +1     4     3     2
  H(         15          X    )   1.10557649 +1  109.9009987 +1  -64.1489109 +1     5     4     3
  H(         16          X    )   1.10442040 +1  110.1208232 +1  179.2242032 +1     5     4     3
  H(         17          X    )   1.10467372 +1  110.1392366 +1 -179.2486796 +1     6     5     4
  H(         18          X    )   1.10587053 +1  109.8918777 +1   64.1659116 +1     6     5     4
 
 TIME=     0.16
  REACTANTS AND PRODUCTS SWAPPED AROUND
 *+*+*+*+*+*+*+*+*+*+*+*+*+*+*+*+*+*+*+*+*+*+*+*+*+*+*+*+*+*+*+*+*+*+*+*+*+*+*+*+
            BAR SHORTENED BY       1.000 PERCENT
 GRADIENT CRITERION IN FLEPO =     0.320


          FOR POINT   21 SECOND STRUCTURE
 DISTANCE A - B      1.871347
 HEAT              -27.432628
 GRADIENT NORM       0.694664
 DIRECTION COSINE    0.227382
 GEO-OK CHARGE=0 SINGLET  PM7 PRECISE
 Cyklohexan, lodicka, TS

  C(          1          X    )   0.00000000 +0    0.0000000 +0    0.0000000 +0
  C(          2          X    )   1.53461919 +1    0.0000000 +0    0.0000000 +0     1     0     0
  C(          3          X    )   1.53529231 +1  110.4827733 +1    0.0000000 +0     2     1     0
  C(          4          X    )   1.53506456 +1  110.4934134 +1   57.3498428 +1     3     2     1
  C(          5          X    )   1.53497476 +1  110.5515191 +1  -57.2830518 +1     4     3     2
  C(          6          X    )   1.53481759 +1  110.5499899 +1   57.2909803 +1     5     4     3
  H(          7          X    )   1.10471223 +1  110.1159422 +1 -179.3846388 +1     1     2     3
  H(          8          X    )   1.10578942 +1  109.8770867 +1   63.9904008 +1     1     2     3
  H(          9          X    )   1.10477877 +1  110.1461695 +1 -121.9042078 +1     2     1     3
  H(         10          X    )   1.10594540 +1  109.8848728 +1  121.4195049 +1     2     1     3
  H(         11          X    )   1.10595342 +1  109.8703914 +1  -64.0902321 +1     3     2     1
  H(         12          X    )   1.10456045 +1  110.1619838 +1  179.2721656 +1     3     2     1
  H(         13          X    )   1.10446326 +1  110.1372569 +1 -179.2014024 +1     4     3     2
  H(         14          X    )   1.10601429 +1  109.8719695 +1   64.1477657 +1     4     3     2
  H(         15          X    )   1.10581183 +1  109.9012099 +1  -64.1522891 +1     5     4     3
  H(         16          X    )   1.10473081 +1  110.1272085 +1  179.2102539 +1     5     4     3
  H(         17          X    )   1.10480043 +1  110.1490092 +1 -179.2144903 +1     6     5     4
  H(         18          X    )   1.10578401 +1  109.9291210 +1   64.1496419 +1     6     5     4
 
 *+*+*+*+*+*+*+*+*+*+*+*+*+*+*+*+*+*+*+*+*+*+*+*+*+*+*+*+*+*+*+*+*+*+*+*+*+*+*+*+
            BAR SHORTENED BY       1.000 PERCENT
 GRADIENT CRITERION IN FLEPO =     0.320


          FOR POINT   22 SECOND STRUCTURE
 DISTANCE A - B      1.852633
 HEAT              -27.432404
 GRADIENT NORM       0.758975
 DIRECTION COSINE    0.366900
 GEO-OK CHARGE=0 SINGLET  PM7 PRECISE
 Cyklohexan, lodicka, TS

  C(          1          X    )   0.00000000 +0    0.0000000 +0    0.0000000 +0
  C(          2          X    )   1.53481785 +1    0.0000000 +0    0.0000000 +0     1     0     0
  C(          3          X    )   1.53480881 +1  110.4796571 +1    0.0000000 +0     2     1     0
  C(          4          X    )   1.53473768 +1  110.4926883 +1   57.3409921 +1     3     2     1
  C(          5          X    )   1.53495406 +1  110.5628251 +1  -57.2862249 +1     4     3     2
  C(          6          X    )   1.53446087 +1  110.5471878 +1   57.2915866 +1     5     4     3
  H(          7          X    )   1.10443524 +1  110.1196433 +1 -179.3800685 +1     1     2     3
  H(          8          X    )   1.10554026 +1  109.8800798 +1   63.9882425 +1     1     2     3
  H(          9          X    )   1.10442885 +1  110.1506631 +1 -121.9241700 +1     2     1     3
  H(         10          X    )   1.10572442 +1  109.8819533 +1  121.4179234 +1     2     1     3
  H(         11          X    )   1.10571305 +1  109.8721211 +1  -64.0904620 +1     3     2     1
  H(         12          X    )   1.10457337 +1  110.1560840 +1  179.2696145 +1     3     2     1
  H(         13          X    )   1.10423500 +1  110.1298272 +1 -179.2065945 +1     4     3     2
  H(         14          X    )   1.10574344 +1  109.8701142 +1   64.1558028 +1     4     3     2
  H(         15          X    )   1.10562725 +1  109.9038750 +1  -64.1517420 +1     5     4     3
  H(         16          X    )   1.10504531 +1  110.1546207 +1  179.2118721 +1     5     4     3
  H(         17          X    )   1.10475991 +1  110.1463109 +1 -179.2127082 +1     6     5     4
  H(         18          X    )   1.10559309 +1  109.9254052 +1   64.1721476 +1     6     5     4
 
 *+*+*+*+*+*+*+*+*+*+*+*+*+*+*+*+*+*+*+*+*+*+*+*+*+*+*+*+*+*+*+*+*+*+*+*+*+*+*+*+
            BAR SHORTENED BY       1.000 PERCENT
 GRADIENT CRITERION IN FLEPO =     0.320


          FOR POINT   23 SECOND STRUCTURE
 DISTANCE A - B      1.834107
 HEAT              -27.432634
 GRADIENT NORM       0.626507
 DIRECTION COSINE   -0.236207
 GEO-OK CHARGE=0 SINGLET  PM7 PRECISE
 Cyklohexan, lodicka, TS

  C(          1          X    )   0.00000000 +0    0.0000000 +0    0.0000000 +0
  C(          2          X    )   1.53490487 +1    0.0000000 +0    0.0000000 +0     1     0     0
  C(          3          X    )   1.53494145 +1  110.5018198 +1    0.0000000 +0     2     1     0
  C(          4          X    )   1.53502137 +1  110.4706968 +1   57.3697980 +1     3     2     1
  C(          5          X    )   1.53494275 +1  110.5678679 +1  -57.3170472 +1     4     3     2
  C(          6          X    )   1.53496628 +1  110.5289240 +1   57.3085665 +1     5     4     3
  H(          7          X    )   1.10517124 +1  110.1571211 +1 -179.4010294 +1     1     2     3
  H(          8          X    )   1.10607469 +1  109.8459819 +1   63.9457593 +1     1     2     3
  H(          9          X    )   1.10473055 +1  110.1328219 +1 -121.8947338 +1     2     1     3
  H(         10          X    )   1.10573771 +1  109.9062095 +1  121.4477451 +1     2     1     3
  H(         11          X    )   1.10584805 +1  109.8980075 +1  -64.0814558 +1     3     2     1
  H(         12          X    )   1.10468064 +1  110.1556653 +1  179.2739107 +1     3     2     1
  H(         13          X    )   1.10474319 +1  110.1045344 +1 -179.2123048 +1     4     3     2
  H(         14          X    )   1.10575617 +1  109.8847770 +1   64.1520601 +1     4     3     2
  H(         15          X    )   1.10589725 +1  109.8823253 +1  -64.1367730 +1     5     4     3
  H(         16          X    )   1.10468802 +1  110.1366844 +1  179.2564487 +1     5     4     3
  H(         17          X    )   1.10457799 +1  110.1288374 +1 -179.2014752 +1     6     5     4
  H(         18          X    )   1.10576832 +1  109.9010841 +1   64.1430307 +1     6     5     4
 
 TIME=     0.70
  REACTANTS AND PRODUCTS SWAPPED AROUND
 *+*+*+*+*+*+*+*+*+*+*+*+*+*+*+*+*+*+*+*+*+*+*+*+*+*+*+*+*+*+*+*+*+*+*+*+*+*+*+*+
            BAR SHORTENED BY       0.000 PERCENT
 GRADIENT CRITERION IN FLEPO =     0.320


          FOR POINT   24 FIRST  STRUCTURE
 DISTANCE A - B      1.834107
 HEAT              -27.432595
 GRADIENT NORM       0.383481
 DIRECTION COSINE   -0.248732
 GEO-OK CHARGE=0 SINGLET  PM7 PRECISE
 Cyklohexan, lodicka, TS

  C(          1          X    )   0.00000000 +0    0.0000000 +0    0.0000000 +0
  C(          2          X    )   1.53497448 +1    0.0000000 +0    0.0000000 +0     1     0     0
  C(          3          X    )   1.53488884 +1  110.4859138 +1    0.0000000 +0     2     1     0
  C(          4          X    )   1.53487013 +1  110.4699255 +1   57.3960245 +1     3     2     1
  C(          5          X    )   1.53487889 +1  110.5676167 +1  -57.3081358 +1     4     3     2
  C(          6          X    )   1.53482653 +1  110.5331120 +1   57.2937216 +1     5     4     3
  H(          7          X    )   1.10454485 +1  110.1537815 +1 -179.4242577 +1     1     2     3
  H(          8          X    )   1.10582122 +1  109.9106243 +1   63.9161273 +1     1     2     3
  H(          9          X    )   1.10444248 +1  110.1743288 +1 -121.9277590 +1     2     1     3
  H(         10          X    )   1.10575704 +1  109.8726160 +1  121.4208021 +1     2     1     3
  H(         11          X    )   1.10563937 +1  109.8881386 +1  -64.0533010 +1     3     2     1
  H(         12          X    )   1.10462871 +1  110.1582339 +1  179.3044158 +1     3     2     1
  H(         13          X    )   1.10455015 +1  110.1366902 +1 -179.2395685 +1     4     3     2
  H(         14          X    )   1.10577426 +1  109.8598587 +1   64.1252964 +1     4     3     2
  H(         15          X    )   1.10601107 +1  109.9050394 +1  -64.1579557 +1     5     4     3
  H(         16          X    )   1.10461149 +1  110.1205706 +1  179.2102643 +1     5     4     3
  H(         17          X    )   1.10461369 +1  110.1416426 +1 -179.2422531 +1     6     5     4
  H(         18          X    )   1.10564501 +1  109.9003315 +1   64.1443808 +1     6     5     4
 
 TIME=     0.14
  REACTANTS AND PRODUCTS SWAPPED AROUND
 *+*+*+*+*+*+*+*+*+*+*+*+*+*+*+*+*+*+*+*+*+*+*+*+*+*+*+*+*+*+*+*+*+*+*+*+*+*+*+*+
            BAR SHORTENED BY       1.000 PERCENT
 GRADIENT CRITERION IN FLEPO =     0.320


          FOR POINT   25 SECOND STRUCTURE
 DISTANCE A - B      1.815766
 HEAT              -27.432380
 GRADIENT NORM       0.738097
 DIRECTION COSINE   -0.249648
 GEO-OK CHARGE=0 SINGLET  PM7 PRECISE
 Cyklohexan, lodicka, TS

  C(          1          X    )   0.00000000 +0    0.0000000 +0    0.0000000 +0
  C(          2          X    )   1.53489856 +1    0.0000000 +0    0.0000000 +0     1     0     0
  C(          3          X    )   1.53452911 +1  110.5019538 +1    0.0000000 +0     2     1     0
  C(          4          X    )   1.53485307 +1  110.4720124 +1   57.3684436 +1     3     2     1
  C(          5          X    )   1.53508320 +1  110.5590863 +1  -57.3140530 +1     4     3     2
  C(          6          X    )   1.53455273 +1  110.5355159 +1   57.3086978 +1     5     4     3
  H(          7          X    )   1.10485728 +1  110.1571217 +1 -179.4011145 +1     1     2     3
  H(          8          X    )   1.10584804 +1  109.8544336 +1   63.9507807 +1     1     2     3
  H(          9          X    )   1.10449796 +1  110.1413296 +1 -121.8960693 +1     2     1     3
  H(         10          X    )   1.10549252 +1  109.9113367 +1  121.4473555 +1     2     1     3
  H(         11          X    )   1.10556621 +1  109.8951443 +1  -64.0770438 +1     3     2     1
  H(         12          X    )   1.10467132 +1  110.1561508 +1  179.2742430 +1     3     2     1
  H(         13          X    )   1.10426856 +1  110.1009467 +1 -179.2036613 +1     4     3     2
  H(         14          X    )   1.10534631 +1  109.8735557 +1   64.1455811 +1     4     3     2
  H(         15          X    )   1.10563237 +1  109.8913122 +1  -64.1423877 +1     5     4     3
  H(         16          X    )   1.10444382 +1  110.1361713 +1  179.2541596 +1     5     4     3
  H(         17          X    )   1.10457579 +1  110.1300454 +1 -179.2093580 +1     6     5     4
  H(         18          X    )   1.10548728 +1  109.8984458 +1   64.1317322 +1     6     5     4
 
 TIME=     0.17
  REACTANTS AND PRODUCTS SWAPPED AROUND
 *+*+*+*+*+*+*+*+*+*+*+*+*+*+*+*+*+*+*+*+*+*+*+*+*+*+*+*+*+*+*+*+*+*+*+*+*+*+*+*+
            BAR SHORTENED BY       1.000 PERCENT
 GRADIENT CRITERION IN FLEPO =     0.320


          FOR POINT   26 FIRST  STRUCTURE
 DISTANCE A - B      1.797608
 HEAT              -27.432507
 GRADIENT NORM       0.600607
 DIRECTION COSINE   -0.434024
 GEO-OK CHARGE=0 SINGLET  PM7 PRECISE
 Cyklohexan, lodicka, TS

  C(          1          X    )   0.00000000 +0    0.0000000 +0    0.0000000 +0
  C(          2          X    )   1.53506033 +1    0.0000000 +0    0.0000000 +0     1     0     0
  C(          3          X    )   1.53468076 +1  110.4986336 +1    0.0000000 +0     2     1     0
  C(          4          X    )   1.53487009 +1  110.4687922 +1   57.3984163 +1     3     2     1
  C(          5          X    )   1.53505429 +1  110.5624016 +1  -57.3051573 +1     4     3     2
  C(          6          X    )   1.53468559 +1  110.5350021 +1   57.2957636 +1     5     4     3
  H(          7          X    )   1.10494999 +1  110.1579810 +1 -179.4299165 +1     1     2     3
  H(          8          X    )   1.10558202 +1  109.8976485 +1   63.9060843 +1     1     2     3
  H(          9          X    )   1.10446713 +1  110.1666460 +1 -121.9241879 +1     2     1     3
  H(         10          X    )   1.10593372 +1  109.8881274 +1  121.4360204 +1     2     1     3
  H(         11          X    )   1.10566649 +1  109.8814498 +1  -64.0430479 +1     3     2     1
  H(         12          X    )   1.10462765 +1  110.1574907 +1  179.3088667 +1     3     2     1
  H(         13          X    )   1.10439313 +1  110.1368760 +1 -179.2268646 +1     4     3     2
  H(         14          X    )   1.10595213 +1  109.8813264 +1   64.1132607 +1     4     3     2
  H(         15          X    )   1.10561980 +1  109.8931379 +1  -64.1673934 +1     5     4     3
  H(         16          X    )   1.10461913 +1  110.1299248 +1  179.2251222 +1     5     4     3
  H(         17          X    )   1.10464156 +1  110.1471367 +1 -179.2367286 +1     6     5     4
  H(         18          X    )   1.10569643 +1  109.8965816 +1   64.1396884 +1     6     5     4
 
 TIME=     0.20
  REACTANTS AND PRODUCTS SWAPPED AROUND
 *+*+*+*+*+*+*+*+*+*+*+*+*+*+*+*+*+*+*+*+*+*+*+*+*+*+*+*+*+*+*+*+*+*+*+*+*+*+*+*+
            BAR SHORTENED BY       1.000 PERCENT
 GRADIENT CRITERION IN FLEPO =     0.320


          FOR POINT   27 SECOND STRUCTURE
 DISTANCE A - B      1.779632
 HEAT              -27.432581
 GRADIENT NORM       0.499729
 DIRECTION COSINE   -0.374596
 GEO-OK CHARGE=0 SINGLET  PM7 PRECISE
 Cyklohexan, lodicka, TS

  C(          1          X    )   0.00000000 +0    0.0000000 +0    0.0000000 +0
  C(          2          X    )   1.53521586 +1    0.0000000 +0    0.0000000 +0     1     0     0
  C(          3          X    )   1.53472568 +1  110.4978634 +1    0.0000000 +0     2     1     0
  C(          4          X    )   1.53475355 +1  110.4718865 +1   57.3593140 +1     3     2     1
  C(          5          X    )   1.53484042 +1  110.5793796 +1  -57.3149678 +1     4     3     2
  C(          6          X    )   1.53481741 +1  110.5331413 +1   57.3150585 +1     5     4     3
  H(          7          X    )   1.10461261 +1  110.1402822 +1 -179.4002500 +1     1     2     3
  H(          8          X    )   1.10568368 +1  109.8558666 +1   63.9330350 +1     1     2     3
  H(          9          X    )   1.10468684 +1  110.1197269 +1 -121.9044183 +1     2     1     3
  H(         10          X    )   1.10576017 +1  109.8970899 +1  121.4287829 +1     2     1     3
  H(         11          X    )   1.10572585 +1  109.8845782 +1  -64.0855648 +1     3     2     1
  H(         12          X    )   1.10466698 +1  110.1506103 +1  179.2737799 +1     3     2     1
  H(         13          X    )   1.10467039 +1  110.1074128 +1 -179.2212188 +1     4     3     2
  H(         14          X    )   1.10574774 +1  109.8808150 +1   64.1435788 +1     4     3     2
  H(         15          X    )   1.10567150 +1  109.8936631 +1  -64.1324765 +1     5     4     3
  H(         16          X    )   1.10465475 +1  110.1401804 +1  179.2350104 +1     5     4     3
  H(         17          X    )   1.10488045 +1  110.1137788 +1 -179.1883443 +1     6     5     4
  H(         18          X    )   1.10572510 +1  109.8924184 +1   64.1582431 +1     6     5     4
 
 TIME=     0.27
  REACTANTS AND PRODUCTS SWAPPED AROUND
 *+*+*+*+*+*+*+*+*+*+*+*+*+*+*+*+*+*+*+*+*+*+*+*+*+*+*+*+*+*+*+*+*+*+*+*+*+*+*+*+
            BAR SHORTENED BY       1.000 PERCENT
 GRADIENT CRITERION IN FLEPO =     0.320


          FOR POINT   28 FIRST  STRUCTURE
 DISTANCE A - B      1.761836
 HEAT              -27.432605
 GRADIENT NORM       0.490019
 DIRECTION COSINE   -0.252027
 GEO-OK CHARGE=0 SINGLET  PM7 PRECISE
 Cyklohexan, lodicka, TS

  C(          1          X    )   0.00000000 +0    0.0000000 +0    0.0000000 +0
  C(          2          X    )   1.53497848 +1    0.0000000 +0    0.0000000 +0     1     0     0
  C(          3          X    )   1.53478586 +1  110.5064455 +1    0.0000000 +0     2     1     0
  C(          4          X    )   1.53509530 +1  110.4646541 +1   57.3946709 +1     3     2     1
  C(          5          X    )   1.53489878 +1  110.5533515 +1  -57.3067279 +1     4     3     2
  C(          6          X    )   1.53482150 +1  110.5440869 +1   57.3025632 +1     5     4     3
  H(          7          X    )   1.10472138 +1  110.1656346 +1 -179.4268049 +1     1     2     3
  H(          8          X    )   1.10577532 +1  109.8881638 +1   63.9065508 +1     1     2     3
  H(          9          X    )   1.10449711 +1  110.1690831 +1 -121.9148414 +1     2     1     3
  H(         10          X    )   1.10570749 +1  109.8711135 +1  121.4652727 +1     2     1     3
  H(         11          X    )   1.10589085 +1  109.8810929 +1  -64.0428232 +1     3     2     1
  H(         12          X    )   1.10465599 +1  110.1520840 +1  179.3122236 +1     3     2     1
  H(         13          X    )   1.10460589 +1  110.1099591 +1 -179.2279144 +1     4     3     2
  H(         14          X    )   1.10569932 +1  109.8558031 +1   64.1429173 +1     4     3     2
  H(         15          X    )   1.10578805 +1  109.8998472 +1  -64.1522842 +1     5     4     3
  H(         16          X    )   1.10488331 +1  110.1274193 +1  179.2247117 +1     5     4     3
  H(         17          X    )   1.10458084 +1  110.1462860 +1 -179.2404552 +1     6     5     4
  H(         18          X    )   1.10571951 +1  109.8817158 +1   64.1195607 +1     6     5     4
 
 TIME=     0.27
  REACTANTS AND PRODUCTS SWAPPED AROUND
 *+*+*+*+*+*+*+*+*+*+*+*+*+*+*+*+*+*+*+*+*+*+*+*+*+*+*+*+*+*+*+*+*+*+*+*+*+*+*+*+
            BAR SHORTENED BY       1.000 PERCENT
 GRADIENT CRITERION IN FLEPO =     0.320


          FOR POINT   29 SECOND STRUCTURE
 DISTANCE A - B      1.744218
 HEAT              -27.432517
 GRADIENT NORM       0.552419
 DIRECTION COSINE   -0.518326
 GEO-OK CHARGE=0 SINGLET  PM7 PRECISE
 Cyklohexan, lodicka, TS

  C(          1          X    )   0.00000000 +0    0.0000000 +0    0.0000000 +0
  C(          2          X    )   1.53495562 +1    0.0000000 +0    0.0000000 +0     1     0     0
  C(          3          X    )   1.53474075 +1  110.4909862 +1    0.0000000 +0     2     1     0
  C(          4          X    )   1.53484299 +1  110.4688469 +1   57.3600214 +1     3     2     1
  C(          5          X    )   1.53497389 +1  110.5745278 +1  -57.3111559 +1     4     3     2
  C(          6          X    )   1.53471890 +1  110.5356866 +1   57.3087261 +1     5     4     3
  H(          7          X    )   1.10454031 +1  110.1415671 +1 -179.4080255 +1     1     2     3
  H(          8          X    )   1.10564188 +1  109.9007000 +1   63.9190894 +1     1     2     3
  H(          9          X    )   1.10459369 +1  110.1359349 +1 -121.8985594 +1     2     1     3
  H(         10          X    )   1.10586029 +1  109.9010241 +1  121.4575152 +1     2     1     3
  H(         11          X    )   1.10564018 +1  109.9061990 +1  -64.0844843 +1     3     2     1
  H(         12          X    )   1.10461582 +1  110.1592353 +1  179.2747132 +1     3     2     1
  H(         13          X    )   1.10483981 +1  110.1218509 +1 -179.2221939 +1     4     3     2
  H(         14          X    )   1.10564696 +1  109.8660707 +1   64.1334746 +1     4     3     2
  H(         15          X    )   1.10567079 +1  109.8915616 +1  -64.1306468 +1     5     4     3
  H(         16          X    )   1.10495864 +1  110.1452434 +1  179.2297049 +1     5     4     3
  H(         17          X    )   1.10465077 +1  110.1245493 +1 -179.2018335 +1     6     5     4
  H(         18          X    )   1.10580240 +1  109.9332005 +1   64.1510029 +1     6     5     4
 
 TIME=     0.21
  REACTANTS AND PRODUCTS SWAPPED AROUND
 *+*+*+*+*+*+*+*+*+*+*+*+*+*+*+*+*+*+*+*+*+*+*+*+*+*+*+*+*+*+*+*+*+*+*+*+*+*+*+*+
            BAR SHORTENED BY       1.000 PERCENT
 GRADIENT CRITERION IN FLEPO =     0.320


          FOR POINT   30 FIRST  STRUCTURE
 DISTANCE A - B      1.726775
 HEAT              -27.432627
 GRADIENT NORM       0.482749
 DIRECTION COSINE   -0.398875
 GEO-OK CHARGE=0 SINGLET  PM7 PRECISE
 Cyklohexan, lodicka, TS

  C(          1          X    )   0.00000000 +0    0.0000000 +0    0.0000000 +0
  C(          2          X    )   1.53507776 +1    0.0000000 +0    0.0000000 +0     1     0     0
  C(          3          X    )   1.53475185 +1  110.5098612 +1    0.0000000 +0     2     1     0
  C(          4          X    )   1.53498476 +1  110.4776189 +1   57.4074781 +1     3     2     1
  C(          5          X    )   1.53516228 +1  110.5386406 +1  -57.3028114 +1     4     3     2
  C(          6          X    )   1.53481377 +1  110.5507986 +1   57.2924425 +1     5     4     3
  H(          7          X    )   1.10466911 +1  110.1643957 +1 -179.4223134 +1     1     2     3
  H(          8          X    )   1.10560923 +1  109.8837907 +1   63.8956994 +1     1     2     3
  H(          9          X    )   1.10449708 +1  110.1623196 +1 -121.9046151 +1     2     1     3
  H(         10          X    )   1.10577005 +1  109.8915784 +1  121.4605060 +1     2     1     3
  H(         11          X    )   1.10569554 +1  109.8930748 +1  -64.0424710 +1     3     2     1
  H(         12          X    )   1.10484059 +1  110.1480812 +1  179.3183473 +1     3     2     1
  H(         13          X    )   1.10465110 +1  110.1542497 +1 -179.2269155 +1     4     3     2
  H(         14          X    )   1.10561931 +1  109.8646447 +1   64.1071107 +1     4     3     2
  H(         15          X    )   1.10580062 +1  109.8929945 +1  -64.1587148 +1     5     4     3
  H(         16          X    )   1.10460204 +1  110.1265756 +1  179.2192289 +1     5     4     3
  H(         17          X    )   1.10470602 +1  110.1509379 +1 -179.2331367 +1     6     5     4
  H(         18          X    )   1.10589524 +1  109.8884370 +1   64.1174089 +1     6     5     4
 
 TIME=     0.20
  REACTANTS AND PRODUCTS SWAPPED AROUND
 *+*+*+*+*+*+*+*+*+*+*+*+*+*+*+*+*+*+*+*+*+*+*+*+*+*+*+*+*+*+*+*+*+*+*+*+*+*+*+*+
            BAR SHORTENED BY       1.000 PERCENT
 GRADIENT CRITERION IN FLEPO =     0.320


          FOR POINT   31 SECOND STRUCTURE
 DISTANCE A - B      1.709508
 HEAT              -27.432622
 GRADIENT NORM       0.588722
 DIRECTION COSINE   -0.628715
 GEO-OK CHARGE=0 SINGLET  PM7 PRECISE
 Cyklohexan, lodicka, TS

  C(          1          X    )   0.00000000 +0    0.0000000 +0    0.0000000 +0
  C(          2          X    )   1.53523167 +1    0.0000000 +0    0.0000000 +0     1     0     0
  C(          3          X    )   1.53473741 +1  110.5087277 +1    0.0000000 +0     2     1     0
  C(          4          X    )   1.53494580 +1  110.4766692 +1   57.3722252 +1     3     2     1
  C(          5          X    )   1.53508029 +1  110.5606267 +1  -57.2979349 +1     4     3     2
  C(          6          X    )   1.53475769 +1  110.5472055 +1   57.3030492 +1     5     4     3
  H(          7          X    )   1.10452907 +1  110.1404345 +1 -179.4077967 +1     1     2     3
  H(          8          X    )   1.10554739 +1  109.8474492 +1   63.9087558 +1     1     2     3
  H(          9          X    )   1.10456024 +1  110.1241890 +1 -121.8937874 +1     2     1     3
  H(         10          X    )   1.10557616 +1  109.9079121 +1  121.4786532 +1     2     1     3
  H(         11          X    )   1.10570967 +1  109.8939162 +1  -64.0801849 +1     3     2     1
  H(         12          X    )   1.10468788 +1  110.1557822 +1  179.2901795 +1     3     2     1
  H(         13          X    )   1.10481159 +1  110.1296085 +1 -179.2322692 +1     4     3     2
  H(         14          X    )   1.10561980 +1  109.8581695 +1   64.1160637 +1     4     3     2
  H(         15          X    )   1.10588272 +1  109.8880603 +1  -64.1504514 +1     5     4     3
  H(         16          X    )   1.10470083 +1  110.1311233 +1  179.2375597 +1     5     4     3
  H(         17          X    )   1.10465274 +1  110.1330158 +1 -179.1925290 +1     6     5     4
  H(         18          X    )   1.10560043 +1  109.9212242 +1   64.1510231 +1     6     5     4
 
 TIME=     0.20
  REACTANTS AND PRODUCTS SWAPPED AROUND
 *+*+*+*+*+*+*+*+*+*+*+*+*+*+*+*+*+*+*+*+*+*+*+*+*+*+*+*+*+*+*+*+*+*+*+*+*+*+*+*+
            BAR SHORTENED BY       1.000 PERCENT
 GRADIENT CRITERION IN FLEPO =     0.320


          FOR POINT   32 FIRST  STRUCTURE
 DISTANCE A - B      1.692413
 HEAT              -27.432358
 GRADIENT NORM       0.624895
 DIRECTION COSINE   -0.386550
 GEO-OK CHARGE=0 SINGLET  PM7 PRECISE
 Cyklohexan, lodicka, TS

  C(          1          X    )   0.00000000 +0    0.0000000 +0    0.0000000 +0
  C(          2          X    )   1.53496562 +1    0.0000000 +0    0.0000000 +0     1     0     0
  C(          3          X    )   1.53457693 +1  110.5089886 +1    0.0000000 +0     2     1     0
  C(          4          X    )   1.53472048 +1  110.4705599 +1   57.3955482 +1     3     2     1
  C(          5          X    )   1.53504080 +1  110.5516635 +1  -57.3006566 +1     4     3     2
  C(          6          X    )   1.53465204 +1  110.5479370 +1   57.2968880 +1     5     4     3
  H(          7          X    )   1.10447747 +1  110.1626152 +1 -179.4238679 +1     1     2     3
  H(          8          X    )   1.10553958 +1  109.8876010 +1   63.9031570 +1     1     2     3
  H(          9          X    )   1.10441960 +1  110.1691099 +1 -121.9021297 +1     2     1     3
  H(         10          X    )   1.10585074 +1  109.8959134 +1  121.4571420 +1     2     1     3
  H(         11          X    )   1.10567777 +1  109.8893811 +1  -64.0494080 +1     3     2     1
  H(         12          X    )   1.10475109 +1  110.1480366 +1  179.3175217 +1     3     2     1
  H(         13          X    )   1.10451334 +1  110.1443633 +1 -179.2301585 +1     4     3     2
  H(         14          X    )   1.10554079 +1  109.8625733 +1   64.1228930 +1     4     3     2
  H(         15          X    )   1.10580093 +1  109.8933857 +1  -64.1602552 +1     5     4     3
  H(         16          X    )   1.10448456 +1  110.1348743 +1  179.2163407 +1     5     4     3
  H(         17          X    )   1.10467492 +1  110.1474766 +1 -179.2300275 +1     6     5     4
  H(         18          X    )   1.10585334 +1  109.9003077 +1   64.2015944 +1     6     5     4
 
 TIME=     0.16
  REACTANTS AND PRODUCTS SWAPPED AROUND
 *+*+*+*+*+*+*+*+*+*+*+*+*+*+*+*+*+*+*+*+*+*+*+*+*+*+*+*+*+*+*+*+*+*+*+*+*+*+*+*+
            BAR SHORTENED BY       1.000 PERCENT
 GRADIENT CRITERION IN FLEPO =     0.320


          FOR POINT   33 SECOND STRUCTURE
 DISTANCE A - B      1.675488
 HEAT              -27.432296
 GRADIENT NORM       0.779071
 DIRECTION COSINE   -0.513457
 GEO-OK CHARGE=0 SINGLET  PM7 PRECISE
 Cyklohexan, lodicka, TS

  C(          1          X    )   0.00000000 +0    0.0000000 +0    0.0000000 +0
  C(          2          X    )   1.53510008 +1    0.0000000 +0    0.0000000 +0     1     0     0
  C(          3          X    )   1.53451506 +1  110.5084015 +1    0.0000000 +0     2     1     0
[...]
  H(         13          X    )   1.10454393 +1  110.1254695 +1 -179.2122273 +1     4     3     2
  H(         14          X    )   1.10561721 +1  109.8799322 +1   64.1692217 +1     4     3     2
  H(         15          X    )   1.10573998 +1  109.8915473 +1  -64.1726975 +1     5     4     3
  H(         16          X    )   1.10460363 +1  110.1323386 +1  179.2073033 +1     5     4     3
  H(         17          X    )   1.10466273 +1  110.1330162 +1 -179.2060428 +1     6     5     4
  H(         18          X    )   1.10564054 +1  109.8933335 +1   64.1680491 +1     6     5     4
 
 TIME=     0.09
  REACTANTS AND PRODUCTS SWAPPED AROUND
 *+*+*+*+*+*+*+*+*+*+*+*+*+*+*+*+*+*+*+*+*+*+*+*+*+*+*+*+*+*+*+*+*+*+*+*+*+*+*+*+
            BAR SHORTENED BY       1.000 PERCENT
 GRADIENT CRITERION IN FLEPO =     0.320


          FOR POINT  319 SECOND STRUCTURE
 DISTANCE A - B      0.104582
 HEAT              -27.433146
 GRADIENT NORM       0.275015
 DIRECTION COSINE   -0.913987
 GEO-OK CHARGE=0 SINGLET  PM7 PRECISE
 Cyklohexan, lodicka, TS

  C(          1          X    )   0.00000000 +0    0.0000000 +0    0.0000000 +0
  C(          2          X    )   1.53497532 +1    0.0000000 +0    0.0000000 +0     1     0     0
  C(          3          X    )   1.53474334 +1  110.5239924 +1    0.0000000 +0     2     1     0
  C(          4          X    )   1.53480017 +1  110.5159837 +1   57.3111901 +1     3     2     1
  C(          5          X    )   1.53493004 +1  110.5547246 +1  -57.2876774 +1     4     3     2
  C(          6          X    )   1.53474973 +1  110.5371174 +1   57.2877603 +1     5     4     3
  H(          7          X    )   1.10456458 +1  110.1355714 +1 -179.2757335 +1     1     2     3
  H(          8          X    )   1.10562286 +1  109.8802952 +1   64.0844840 +1     1     2     3
  H(          9          X    )   1.10458290 +1  110.1344319 +1 -121.9138988 +1     2     1     3
  H(         10          X    )   1.10578162 +1  109.8934016 +1  121.4616855 +1     2     1     3
  H(         11          X    )   1.10563743 +1  109.8876228 +1  -64.1402121 +1     3     2     1
  H(         12          X    )   1.10468956 +1  110.1382622 +1  179.2357577 +1     3     2     1
  H(         13          X    )   1.10454518 +1  110.1257644 +1 -179.2104283 +1     4     3     2
  H(         14          X    )   1.10562733 +1  109.8796584 +1   64.1685135 +1     4     3     2
  H(         15          X    )   1.10573702 +1  109.8915074 +1  -64.1700475 +1     5     4     3
  H(         16          X    )   1.10459904 +1  110.1330753 +1  179.2079764 +1     5     4     3
  H(         17          X    )   1.10465521 +1  110.1337337 +1 -179.2085410 +1     6     5     4
  H(         18          X    )   1.10570544 +1  109.8940622 +1   64.1678808 +1     6     5     4
 
 TIME=     0.08
  REACTANTS AND PRODUCTS SWAPPED AROUND
 *+*+*+*+*+*+*+*+*+*+*+*+*+*+*+*+*+*+*+*+*+*+*+*+*+*+*+*+*+*+*+*+*+*+*+*+*+*+*+*+
            BAR SHORTENED BY       1.000 PERCENT
 GRADIENT CRITERION IN FLEPO =     0.320


          FOR POINT  320 FIRST  STRUCTURE
 DISTANCE A - B      0.103536
 HEAT              -27.433135
 GRADIENT NORM       0.270313
 DIRECTION COSINE   -0.914903
 GEO-OK CHARGE=0 SINGLET  PM7 PRECISE
 Cyklohexan, lodicka, TS

  C(          1          X    )   0.00000000 +0    0.0000000 +0    0.0000000 +0
  C(          2          X    )   1.53493797 +1    0.0000000 +0    0.0000000 +0     1     0     0
  C(          3          X    )   1.53474537 +1  110.5224709 +1    0.0000000 +0     2     1     0
  C(          4          X    )   1.53479096 +1  110.5158937 +1   57.3106083 +1     3     2     1
  C(          5          X    )   1.53493150 +1  110.5551869 +1  -57.2854885 +1     4     3     2
  C(          6          X    )   1.53474922 +1  110.5384463 +1   57.2851206 +1     5     4     3
  H(          7          X    )   1.10453922 +1  110.1402095 +1 -179.2866676 +1     1     2     3
  H(          8          X    )   1.10563412 +1  109.8799614 +1   64.0833749 +1     1     2     3
  H(          9          X    )   1.10458469 +1  110.1360049 +1 -121.9134471 +1     2     1     3
  H(         10          X    )   1.10568996 +1  109.8969161 +1  121.4591664 +1     2     1     3
  H(         11          X    )   1.10564925 +1  109.8904943 +1  -64.1408129 +1     3     2     1
  H(         12          X    )   1.10469779 +1  110.1387201 +1  179.2351188 +1     3     2     1
  H(         13          X    )   1.10454297 +1  110.1254573 +1 -179.2122089 +1     4     3     2
  H(         14          X    )   1.10561643 +1  109.8799045 +1   64.1692506 +1     4     3     2
  H(         15          X    )   1.10573907 +1  109.8915664 +1  -64.1726721 +1     5     4     3
  H(         16          X    )   1.10460278 +1  110.1323739 +1  179.2073099 +1     5     4     3
  H(         17          X    )   1.10466262 +1  110.1330256 +1 -179.2060687 +1     6     5     4
  H(         18          X    )   1.10564025 +1  109.8933317 +1   64.1680324 +1     6     5     4
 
 TIME=     0.08
  REACTANTS AND PRODUCTS SWAPPED AROUND
 *+*+*+*+*+*+*+*+*+*+*+*+*+*+*+*+*+*+*+*+*+*+*+*+*+*+*+*+*+*+*+*+*+*+*+*+*+*+*+*+
            BAR SHORTENED BY       1.000 PERCENT
 GRADIENT CRITERION IN FLEPO =     0.320


          FOR POINT  321 SECOND STRUCTURE
 DISTANCE A - B      0.102500
 HEAT              -27.433145
 GRADIENT NORM       0.276399
 DIRECTION COSINE   -0.918318
 GEO-OK CHARGE=0 SINGLET  PM7 PRECISE
 Cyklohexan, lodicka, TS

  C(          1          X    )   0.00000000 +0    0.0000000 +0    0.0000000 +0
  C(          2          X    )   1.53497491 +1    0.0000000 +0    0.0000000 +0     1     0     0
  C(          3          X    )   1.53474204 +1  110.5239793 +1    0.0000000 +0     2     1     0
  C(          4          X    )   1.53479901 +1  110.5159676 +1   57.3111576 +1     3     2     1
  C(          5          X    )   1.53493001 +1  110.5547570 +1  -57.2876442 +1     4     3     2
  C(          6          X    )   1.53474840 +1  110.5371329 +1   57.2877328 +1     5     4     3
  H(          7          X    )   1.10456334 +1  110.1356198 +1 -179.2758425 +1     1     2     3
  H(          8          X    )   1.10562210 +1  109.8803092 +1   64.0844732 +1     1     2     3
  H(          9          X    )   1.10458214 +1  110.1344755 +1 -121.9138956 +1     2     1     3
  H(         10          X    )   1.10577985 +1  109.8934555 +1  121.4616592 +1     2     1     3
  H(         11          X    )   1.10563663 +1  109.8876432 +1  -64.1402036 +1     3     2     1
  H(         12          X    )   1.10468962 +1  110.1382691 +1  179.2357517 +1     3     2     1
  H(         13          X    )   1.10454420 +1  110.1257466 +1 -179.2104457 +1     4     3     2
  H(         14          X    )   1.10562635 +1  109.8796364 +1   64.1685561 +1     4     3     2
  H(         15          X    )   1.10573618 +1  109.8915272 +1  -64.1700748 +1     5     4     3
  H(         16          X    )   1.10459829 +1  110.1330957 +1  179.2079696 +1     5     4     3
  H(         17          X    )   1.10465526 +1  110.1337289 +1 -179.2085172 +1     6     5     4
  H(         18          X    )   1.10570387 +1  109.8940459 +1   64.1678676 +1     6     5     4
 
 TIME=     0.08
  REACTANTS AND PRODUCTS SWAPPED AROUND
 *+*+*+*+*+*+*+*+*+*+*+*+*+*+*+*+*+*+*+*+*+*+*+*+*+*+*+*+*+*+*+*+*+*+*+*+*+*+*+*+
            BAR SHORTENED BY       1.000 PERCENT
 GRADIENT CRITERION IN FLEPO =     0.320


          FOR POINT  322 FIRST  STRUCTURE
 DISTANCE A - B      0.101475
 HEAT              -27.433134
 GRADIENT NORM       0.272133
 DIRECTION COSINE   -0.919198
 GEO-OK CHARGE=0 SINGLET  PM7 PRECISE
 Cyklohexan, lodicka, TS

  C(          1          X    )   0.00000000 +0    0.0000000 +0    0.0000000 +0
  C(          2          X    )   1.53493830 +1    0.0000000 +0    0.0000000 +0     1     0     0
  C(          3          X    )   1.53474404 +1  110.5224880 +1    0.0000000 +0     2     1     0
  C(          4          X    )   1.53478999 +1  110.5158795 +1   57.3105876 +1     3     2     1
  C(          5          X    )   1.53493144 +1  110.5552097 +1  -57.2854990 +1     4     3     2
  C(          6          X    )   1.53474791 +1  110.5384352 +1   57.2851456 +1     5     4     3
  H(          7          X    )   1.10453850 +1  110.1401657 +1 -179.2865590 +1     1     2     3
  H(          8          X    )   1.10563314 +1  109.8799819 +1   64.0833862 +1     1     2     3
  H(          9          X    )   1.10458390 +1  110.1360169 +1 -121.9134529 +1     2     1     3
  H(         10          X    )   1.10569002 +1  109.8968999 +1  121.4591903 +1     2     1     3
  H(         11          X    )   1.10564822 +1  109.8904576 +1  -64.1407926 +1     3     2     1
  H(         12          X    )   1.10469768 +1  110.1387179 +1  179.2351255 +1     3     2     1
  H(         13          X    )   1.10454204 +1  110.1254457 +1 -179.2121909 +1     4     3     2
  H(         14          X    )   1.10561567 +1  109.8798778 +1   64.1692783 +1     4     3     2
  H(         15          X    )   1.10573820 +1  109.8915848 +1  -64.1726472 +1     5     4     3
  H(         16          X    )   1.10460197 +1  110.1324080 +1  179.2073164 +1     5     4     3
  H(         17          X    )   1.10466252 +1  110.1330348 +1 -179.2060942 +1     6     5     4
  H(         18          X    )   1.10563999 +1  109.8933301 +1   64.1680163 +1     6     5     4
 
 TIME=     0.07
  REACTANTS AND PRODUCTS SWAPPED AROUND
 *+*+*+*+*+*+*+*+*+*+*+*+*+*+*+*+*+*+*+*+*+*+*+*+*+*+*+*+*+*+*+*+*+*+*+*+*+*+*+*+
            BAR SHORTENED BY       1.000 PERCENT
 GRADIENT CRITERION IN FLEPO =     0.320


          FOR POINT  323 SECOND STRUCTURE
 DISTANCE A - B      0.100461
 HEAT              -27.433144
 GRADIENT NORM       0.277747
 DIRECTION COSINE   -0.922398
 GEO-OK CHARGE=0 SINGLET  PM7 PRECISE
 Cyklohexan, lodicka, TS

  C(          1          X    )   0.00000000 +0    0.0000000 +0    0.0000000 +0
  C(          2          X    )   1.53497451 +1    0.0000000 +0    0.0000000 +0     1     0     0
  C(          3          X    )   1.53474078 +1  110.5239663 +1    0.0000000 +0     2     1     0
  C(          4          X    )   1.53479789 +1  110.5159521 +1   57.3111263 +1     3     2     1
  C(          5          X    )   1.53492999 +1  110.5547881 +1  -57.2876119 +1     4     3     2
  C(          6          X    )   1.53474712 +1  110.5371480 +1   57.2877058 +1     5     4     3
  H(          7          X    )   1.10456215 +1  110.1356673 +1 -179.2759493 +1     1     2     3
  H(          8          X    )   1.10562137 +1  109.8803227 +1   64.0844627 +1     1     2     3
  H(          9          X    )   1.10458141 +1  110.1345177 +1 -121.9138925 +1     2     1     3
  H(         10          X    )   1.10577813 +1  109.8935079 +1  121.4616335 +1     2     1     3
  H(         11          X    )   1.10563586 +1  109.8876633 +1  -64.1401955 +1     3     2     1
  H(         12          X    )   1.10468967 +1  110.1382758 +1  179.2357457 +1     3     2     1
  H(         13          X    )   1.10454326 +1  110.1257294 +1 -179.2104628 +1     4     3     2
  H(         14          X    )   1.10562541 +1  109.8796152 +1   64.1685972 +1     4     3     2
  H(         15          X    )   1.10573537 +1  109.8915462 +1  -64.1701015 +1     5     4     3
  H(         16          X    )   1.10459758 +1  110.1331151 +1  179.2079629 +1     5     4     3
  H(         17          X    )   1.10465530 +1  110.1337241 +1 -179.2084939 +1     6     5     4
  H(         18          X    )   1.10570235 +1  109.8940302 +1   64.1678549 +1     6     5     4
 
 TIME=     0.09
  REACTANTS AND PRODUCTS SWAPPED AROUND
 *+*+*+*+*+*+*+*+*+*+*+*+*+*+*+*+*+*+*+*+*+*+*+*+*+*+*+*+*+*+*+*+*+*+*+*+*+*+*+*+
            BAR SHORTENED BY       1.000 PERCENT
 AT END OF STEPWISE ASCENT OF REACTION BARRIER

 -------------------------------------------------------------------------------
 GEO-OK CHARGE=0 SINGLET  PM7 PRECISE
 Cyklohexan, lodicka, TS



     TRANSITION STATE LOCATED USING THE "SADDLE" TECHNIQUE    
     SCF FIELD WAS ACHIEVED                                   


                              PM7 CALCULATION
                                                       MOPAC v22.1.1 Windows
                                                       Tue Feb 20 18:18:46 2024




          FINAL H.O.F PLUS STRESS =        -27.43314 KCAL/MOL =    -114.78027 KJ/MOL
          FINAL STRESS            =          0.00000 KCAL/MOL =       0.00000 KJ/MOL
          FINAL HEAT OF FORMATION =        -27.43314 KCAL/MOL =    -114.78027 KJ/MOL
          TOTAL DISTORTION        =          0.00395 Angstroms
          AVERAGE DISTORTION      =          0.00022 Angstroms per atom (all atoms)
          RMS DISTORTION          =          0.00024 Angstroms per atom (all atoms)


          COSMO AREA              =        132.96 SQUARE ANGSTROMS
          COSMO VOLUME            =        127.53 CUBIC ANGSTROMS

          GRADIENT NORM           =          0.28387          =       0.06691 PER ATOM
          IONIZATION POTENTIAL    =         10.812289 EV
          HOMO LUMO ENERGIES (EV) =        -10.812  4.131
          NO. OF FILLED LEVELS    =         18
          MOLECULAR WEIGHT        =         84.1608         POINT GROUP:  D3d 

          MOLECULAR DIMENSIONS (Angstroms)

            Atom       Atom       Distance
            H    17    H    12     5.00546
            H     9    H    16     4.34433
            H    11    H    10     2.82659


          SCF CALCULATIONS        =       1675
 
          WALL-CLOCK TIME         =     46.508 SECONDS
          COMPUTATION TIME        =          3 MINUTES AND 32.781 SECONDS




   ATOM                 CHEMICAL                   X               Y               Z
  NUMBER                 SYMBOL               (ANGSTROMS)     (ANGSTROMS)     (ANGSTROMS)
 
     1       C(          1          X    )   -3.05932447  *   2.54735812  *   0.16694938  *
     2       C(          2          X    )   -4.31526764  *   1.70888995  *   0.44212824  *
     3       C(          3          X    )   -4.39693053  *   0.52625509  *  -0.53261865  *
     4       C(          4          X    )   -3.13614540  *  -0.34299676  *  -0.43052410  *
     5       C(          5          X    )   -1.87993810  *   0.49527476  *  -0.70484889  *
     6       C(          6          X    )   -1.79854230  *   1.67808989  *   0.26971151  *
     7       H(          7          X    )   -3.00013512  *   3.38882604  *   0.88002955  *
     8       H(          8          X    )   -3.12269815  *   3.00020775  *  -0.83968266  *
     9       H(          9          X    )   -5.21911795  *   2.33762469  *   0.35355193  *
    10       H(         10          X    )   -4.29914798  *   1.33772913  *   1.48362780  *
    11       H(         11          X    )   -4.51436549  *   0.89879081  *  -1.56695669  *
    12       H(         12          X    )   -5.29539795  *  -0.08035216  *  -0.32019610  *
    13       H(         13          X    )   -3.19535767  *  -1.18376509  *  -1.14439827  *
    14       H(         14          X    )   -3.07295477  *  -0.79698988  *   0.57560846  *
    15       H(         15          X    )   -1.89532066  *   0.86637601  *  -1.74633639  *
    16       H(         16          X    )   -0.97623714  *  -0.13361742  *  -0.61566657  *
    17       H(         17          X    )   -0.90005350  *   2.28461754  *   0.05733091  *
    18       H(         18          X    )   -1.68131818  *   1.30583442  *   1.30424463  *

                             CARTESIAN COORDINATES

   1    C       -3.059324467     2.547358121     0.166949378
   2    C       -4.315267636     1.708889953     0.442128236
   3    C       -4.396930528     0.526255087    -0.532618648
   4    C       -3.136145404    -0.342996764    -0.430524098
   5    C       -1.879938102     0.495274758    -0.704848888
   6    C       -1.798542305     1.678089895     0.269711513
   7    H       -3.000135123     3.388826038     0.880029555
   8    H       -3.122698147     3.000207754    -0.839682656
   9    H       -5.219117954     2.337624689     0.353551931
  10    H       -4.299147977     1.337729133     1.483627799
  11    H       -4.514365493     0.898790813    -1.566956690
  12    H       -5.295397948    -0.080352161    -0.320196102
  13    H       -3.195357671    -1.183765091    -1.144398269
  14    H       -3.072954774    -0.796989879     0.575608460
  15    H       -1.895320659     0.866376012    -1.746336387
  16    H       -0.976237140    -0.133617420    -0.615666565
  17    H       -0.900053500     2.284617541     0.057330913
  18    H       -1.681318177     1.305834418     1.304244630


           Empirical Formula: C6 H12  =    18 atoms



      MOLECULAR POINT GROUP   :   D3d 


                  EIGENVALUES  
 -30.03674 -25.71143 -25.70896 -20.57727 -20.57648 -18.98087 -16.42405 -14.85661
 -14.85529 -14.66370 -13.08303 -12.86840 -12.86569 -11.83336 -11.83321 -10.94876
 -10.81291 -10.81229   4.13116   4.13123   4.34305   4.77664   4.77816   4.99354
   5.85845   5.85945   5.91857   5.93830   6.18886   6.18936   6.64261   6.73310
   6.73372   6.78096   6.82225   6.82261


              NET ATOMIC CHARGES AND DIPOLE CONTRIBUTIONS

  ATOM NO.   TYPE          CHARGE      No. of ELECS.   s-Pop       p-Pop       
    1          C          -0.262145        4.2621     1.05832     3.20382
    2          C          -0.262174        4.2622     1.05833     3.20385
    3          C          -0.262210        4.2622     1.05830     3.20391
    4          C          -0.262151        4.2622     1.05829     3.20386
    5          C          -0.262179        4.2622     1.05831     3.20386
    6          C          -0.262207        4.2622     1.05831     3.20390
    7          H           0.127474        0.8725     0.87253
    8          H           0.134698        0.8653     0.86530
    9          H           0.127469        0.8725     0.87253
   10          H           0.134708        0.8653     0.86529
   11          H           0.134694        0.8653     0.86531
   12          H           0.127502        0.8725     0.87250
   13          H           0.127469        0.8725     0.87253
   14          H           0.134689        0.8653     0.86531
   15          H           0.134693        0.8653     0.86531
   16          H           0.127477        0.8725     0.87252
   17          H           0.127489        0.8725     0.87251
   18          H           0.134703        0.8653     0.86530
 DIPOLE           X         Y         Z       TOTAL
 POINT-CHG.     0.000    -0.000    -0.000     0.000
 HYBRID         0.000    -0.000    -0.000     0.000
 SUM            0.000    -0.000    -0.000     0.000


          ATOMIC ORBITAL ELECTRON POPULATIONS

                  Atom                 s        px        py        pz   
   C(          1          X    )   1.05832   0.99817   1.05521   1.15044
   C(          2          X    )   1.05833   1.05877   1.04727   1.09781
   C(          3          X    )   1.05830   1.05507   1.04509   1.10375
   C(          4          X    )   1.05829   0.99815   1.05522   1.15049
   C(          5          X    )   1.05831   1.05872   1.04728   1.09786
   C(          6          X    )   1.05831   1.05509   1.04505   1.10376
   H(          7          X    )   0.87253
   H(          8          X    )   0.86530
   H(          9          X    )   0.87253
   H(         10          X    )   0.86529
   H(         11          X    )   0.86531
   H(         12          X    )   0.87250
   H(         13          X    )   0.87253
   H(         14          X    )   0.86531
   H(         15          X    )   0.86531
   H(         16          X    )   0.87252
   H(         17          X    )   0.87251
   H(         18          X    )   0.86530

 **********************
 *                    *
 * JOB ENDED NORMALLY *
 *                    *
 **********************



 TOTAL JOB TIME:            46.54 SECONDS

 == MOPAC DONE ==
