 *******************************************************************************
 **                                                                           **
 **                              MOPAC v22.1.1                                **
 **                                                                           **
 *******************************************************************************
 **          Digital Object Identifier (DOI): 10.5281/zenodo.6511958          **
 **    Visit the DOI location for information on how to cite this program.    **
 *******************************************************************************

                              PM6 CALCULATION RESULTS

 *******************************************************************************
 *  CALCULATION DONE:                                Tue Feb 20 18:43:53 2024  *
 *  PM6        - The PM6 Hamiltonian to be used
 *  SINGLET    - SPIN STATE DEFINED AS A SINGLET
 *  NOOPT      - DO NOT OPTIMIZE ANY COORDINATES
 *
 *
 *
 *                 CHARGE ON SYSTEM = 0
 *
 *
 *
 *  T=         - A TIME OF 172800.0 SECONDS REQUESTED
 *  DUMP=N     - RESTART FILE WRITTEN EVERY 7200.0 SECONDS REQUESTED
 *  AUX        - OUTPUT AUXILIARY INFORMATION
 *  LARGE      - EXPANDED OUTPUT TO BE PRINTED
 *******************************************************************************
 AUX LARGE CHARGE=0 SINGLET NOOPT PM6
 Title

   ATOM   CHEMICAL          X               Y               Z
  NUMBER   SYMBOL      (ANGSTROMS)     (ANGSTROMS)     (ANGSTROMS)
 
     1       C         -3.17300000      2.56390000     -0.20350000   
     2       C         -4.53540000      1.84370000     -0.03690000   
     3       C         -4.43500000      0.30520000     -0.19800000   
     4       C         -3.28290000     -0.08870000     -1.14530000   
     5       C         -1.91200000      0.37480000     -0.59010000   
     6       C         -2.00430000      1.66900000      0.25820000   
     7       H         -3.17910000      3.49790000      0.36350000   
     8       H         -3.02490000      2.82660000     -1.25420000   
     9       H         -5.23540000      2.24570000     -0.77340000   
    10       H         -4.94990000      2.06520000      0.94970000   
    11       H         -5.38270000     -0.08770000     -0.57390000   
    12       H         -4.26200000     -0.15320000      0.77920000   
    13       H         -2.15340000      1.40630000      1.30890000   
    14       H         -1.06180000      2.21800000      0.19500000   
    15       H         -1.23050000      0.53320000     -1.42950000   
    16       H         -1.47870000     -0.41670000      0.02630000   
    17       H         -3.27190000     -1.17090000     -1.29550000   
    18       H         -3.45490000      0.36970000     -2.12280000   
 


          CARTESIAN COORDINATES 

    NO.       ATOM           X           Y           Z

     1         C         -3.1730      2.5639     -0.2035
     2         C         -4.5354      1.8437     -0.0369
     3         C         -4.4350      0.3052     -0.1980
     4         C         -3.2829     -0.0887     -1.1453
     5         C         -1.9120      0.3748     -0.5901
     6         C         -2.0043      1.6690      0.2582
     7         H         -3.1791      3.4979      0.3635
     8         H         -3.0249      2.8266     -1.2542
     9         H         -5.2354      2.2457     -0.7734
    10         H         -4.9499      2.0652      0.9497
    11         H         -5.3827     -0.0877     -0.5739
    12         H         -4.2620     -0.1532      0.7792
    13         H         -2.1534      1.4063      1.3089
    14         H         -1.0618      2.2180      0.1950
    15         H         -1.2305      0.5332     -1.4295
    16         H         -1.4787     -0.4167      0.0263
    17         H         -3.2719     -1.1709     -1.2955
    18         H         -3.4549      0.3697     -2.1228

 General Reference for PM6:
 "Optimization of Parameters for Semiempirical Methods V: Modification of NDDO Approximations
 and Application to 70 Elements", J. J. P. Stewart, J. Mol. Mod., 13, 1173-1213 (2007)
 URL: https://link.springer.com/article/10.1007/s00894-007-0233-4

           Empirical Formula: C6 H12  =    18 atoms



      MOLECULAR POINT GROUP   :   D2  


 SINGLET STATE CALCULATION


      RHF CALCULATION, NO. OF DOUBLY OCCUPIED LEVELS = 18


 -------------------------------------------------------------------------------
 AUX LARGE CHARGE=0 SINGLET NOOPT PM6
 Title



     NO PARAMETERS MARKED FOR OPTIMIZATION, SO 1SCF WAS USED  
     SCF FIELD WAS ACHIEVED                                   


                              PM6 CALCULATION
                                                       MOPAC v22.1.1 Windows
                                                       Tue Feb 20 18:43:53 2024




          FINAL HEAT OF FORMATION =        -23.48837 KCAL/MOL =     -98.27536 KJ/MOL


          COSMO AREA              =        134.42 SQUARE ANGSTROMS
          COSMO VOLUME            =        129.31 CUBIC ANGSTROMS

          IONIZATION POTENTIAL    =         10.702154 EV
          HOMO LUMO ENERGIES (EV) =        -10.702  4.057
          NO. OF FILLED LEVELS    =         18
          MOLECULAR WEIGHT        =         84.1608         POINT GROUP:  D2  

          MOLECULAR DIMENSIONS (Angstroms)

            Atom       Atom       Distance
            H    14    H    11     4.95758
            H     7    H    17     4.27324
            H    18    H    13     2.90037


          SCF CALCULATIONS        =          1
 
          WALL-CLOCK TIME         =      0.078 SECONDS
          COMPUTATION TIME        =      0.297 SECONDS




   ATOM   CHEMICAL          X               Y               Z
  NUMBER   SYMBOL      (ANGSTROMS)     (ANGSTROMS)     (ANGSTROMS)
 
     1       C         -3.17300000      2.56390000     -0.20350000   
     2       C         -4.53540000      1.84370000     -0.03690000   
     3       C         -4.43500000      0.30520000     -0.19800000   
     4       C         -3.28290000     -0.08870000     -1.14530000   
     5       C         -1.91200000      0.37480000     -0.59010000   
     6       C         -2.00430000      1.66900000      0.25820000   
     7       H         -3.17910000      3.49790000      0.36350000   
     8       H         -3.02490000      2.82660000     -1.25420000   
     9       H         -5.23540000      2.24570000     -0.77340000   
    10       H         -4.94990000      2.06520000      0.94970000   
    11       H         -5.38270000     -0.08770000     -0.57390000   
    12       H         -4.26200000     -0.15320000      0.77920000   
    13       H         -2.15340000      1.40630000      1.30890000   
    14       H         -1.06180000      2.21800000      0.19500000   
    15       H         -1.23050000      0.53320000     -1.42950000   
    16       H         -1.47870000     -0.41670000      0.02630000   
    17       H         -3.27190000     -1.17090000     -1.29550000   
    18       H         -3.45490000      0.36970000     -2.12280000   

                             CARTESIAN COORDINATES

   1    C       -3.173000000     2.563900000    -0.203500000
   2    C       -4.535400000     1.843700000    -0.036900000
   3    C       -4.435000000     0.305200000    -0.198000000
   4    C       -3.282900000    -0.088700000    -1.145300000
   5    C       -1.912000000     0.374800000    -0.590100000
   6    C       -2.004300000     1.669000000     0.258200000
   7    H       -3.179100000     3.497900000     0.363500000
   8    H       -3.024900000     2.826600000    -1.254200000
   9    H       -5.235400000     2.245700000    -0.773400000
  10    H       -4.949900000     2.065200000     0.949700000
  11    H       -5.382700000    -0.087700000    -0.573900000
  12    H       -4.262000000    -0.153200000     0.779200000
  13    H       -2.153400000     1.406300000     1.308900000
  14    H       -1.061800000     2.218000000     0.195000000
  15    H       -1.230500000     0.533200000    -1.429500000
  16    H       -1.478700000    -0.416700000     0.026300000
  17    H       -3.271900000    -1.170900000    -1.295500000
  18    H       -3.454900000     0.369700000    -2.122800000


           Empirical Formula: C6 H12  =    18 atoms



      MOLECULAR POINT GROUP   :   D2  


                  EIGENVALUES  
 -29.33313 -25.76542 -25.73386 -21.52692 -21.08208 -17.91551 -16.53090 -16.08744
 -14.78983 -13.63249 -12.88250 -12.68777 -12.59960 -12.20960 -12.09631 -10.85082
 -10.83356 -10.70215   4.05681   4.20105   4.44375   4.58668   4.68437   5.22862
   5.70864   5.85922   6.07446   6.17691   6.42005   6.49187   6.62516   6.71442
   6.72530   6.78444   6.78640   6.90696


              NET ATOMIC CHARGES AND DIPOLE CONTRIBUTIONS

  ATOM NO.   TYPE          CHARGE      No. of ELECS.   s-Pop       p-Pop       
    1          C          -0.245229        4.2452     1.08580     3.15943
    2          C          -0.251614        4.2516     1.08744     3.16418
    3          C          -0.245450        4.2455     1.08582     3.15963
    4          C          -0.245242        4.2452     1.08580     3.15944
    5          C          -0.251615        4.2516     1.08744     3.16418
    6          C          -0.245461        4.2455     1.08583     3.15963
    7          H           0.119873        0.8801     0.88013
    8          H           0.128808        0.8712     0.87119
    9          H           0.122461        0.8775     0.87754
   10          H           0.122602        0.8774     0.87740
   11          H           0.119899        0.8801     0.88010
   12          H           0.128661        0.8713     0.87134
   13          H           0.128666        0.8713     0.87133
   14          H           0.119894        0.8801     0.88011
   15          H           0.122466        0.8775     0.87753
   16          H           0.122601        0.8774     0.87740
   17          H           0.119866        0.8801     0.88013
   18          H           0.128814        0.8712     0.87119
 DIPOLE           X         Y         Z       TOTAL
 POINT-CHG.    -0.000    -0.000     0.001     0.001
 HYBRID         0.000    -0.000     0.001     0.001
 SUM           -0.000    -0.001     0.002     0.002


          ATOMIC ORBITAL ELECTRON POPULATIONS

     Atom    s        px        py        pz   
    1  C   1.08580   0.98353   1.04660   1.12930
    2  C   1.08744   1.03171   0.99941   1.13306
    3  C   1.08582   1.05694   1.00576   1.09693
    4  C   1.08580   0.98414   1.10402   1.07127
    5  C   1.08744   1.03075   1.04303   1.09040
    6  C   1.08583   1.05487   1.01657   1.08819
    7  H   0.88013
    8  H   0.87119
    9  H   0.87754
   10  H   0.87740
   11  H   0.88010
   12  H   0.87134
   13  H   0.87133
   14  H   0.88011
   15  H   0.87753
   16  H   0.87740
   17  H   0.88013
   18  H   0.87119

 **********************
 *                    *
 * JOB ENDED NORMALLY *
 *                    *
 **********************



 TOTAL JOB TIME:             0.10 SECONDS

 == MOPAC DONE ==
