 *******************************************************************************
 **                                                                           **
 **                              MOPAC v22.1.0                                **
 **                                                                           **
 *******************************************************************************
 **          Digital Object Identifier (DOI): 10.5281/zenodo.6511958          **
 **    Visit the DOI location for information on how to cite this program.    **
 *******************************************************************************

                              PM7 CALCULATION RESULTS

 *******************************************************************************
 *  CALCULATION DONE:                                Wed Jan 31 17:04:23 2024  *
 *  PM7        - The PM7 Hamiltonian to be used
 *  SINGLET    - SPIN STATE DEFINED AS A SINGLET
 *
 *
 *
 *                 CHARGE ON SYSTEM = 0
 *
 *
 *
 *  PRECISE    - TIGHTER CRITERIA TO BE USED
 *  T=         - A TIME OF 172800.0 SECONDS REQUESTED
 *  DUMP=N     - RESTART FILE WRITTEN EVERY 7200.0 SECONDS REQUESTED
 *  LARGE      - EXPANDED OUTPUT TO BE PRINTED
 *******************************************************************************
 PRECISE LARGE CHARGE=0 SINGLET  PM7
 naftalene

   ATOM   CHEMICAL          X               Y               Z
  NUMBER   SYMBOL      (ANGSTROMS)     (ANGSTROMS)     (ANGSTROMS)
 
     1       C         -3.58530000  *   3.54501000  *   0.00000000  *
     2       C         -4.78204000  *   2.82644000  *   0.00000000  *
     3       C         -4.75796000  *   1.43483000  *   0.00000000  *
     4       C         -3.53708000  *   0.75811000  *   0.00000000  *
     5       C         -2.32401000  *   1.46580000  *   0.00000000  *
     6       C         -2.34844000  *   2.87972000  *   0.00000000  *
     7       C         -1.13531000  *   3.58735000  *   0.00000000  *
     8       C          0.08555000  *   2.91056000  *   0.00000000  *
     9       C          0.10957000  *   1.51895000  *   0.00000000  *
    10       C         -1.08721000  *   0.80045000  *   0.00000000  *
    11       H         -3.62434000  *   4.63187000  *   0.00000000  *
    12       H         -5.73198000  *   3.35439000  *   0.00000000  *
    13       H         -5.68905000  *   0.87430000  *   0.00000000  *
    14       H         -3.53847000  *  -0.32945000  *   0.00000000  *
    15       H         -1.13384000  *   4.67491000  *   0.00000000  *
    16       H          1.01668000  *   3.47102000  *   0.00000000  *
    17       H          1.05946000  *   0.99092000  *   0.00000000  *
    18       H         -1.04823000  *  -0.28641000  *   0.00000000  *
 


          CARTESIAN COORDINATES 

    NO.       ATOM           X           Y           Z

     1         C         -3.5853      3.5450      0.0000
     2         C         -4.7820      2.8264      0.0000
     3         C         -4.7580      1.4348      0.0000
     4         C         -3.5371      0.7581      0.0000
     5         C         -2.3240      1.4658      0.0000
     6         C         -2.3484      2.8797      0.0000
     7         C         -1.1353      3.5873      0.0000
     8         C          0.0856      2.9106      0.0000
     9         C          0.1096      1.5190      0.0000
    10         C         -1.0872      0.8004      0.0000
    11         H         -3.6243      4.6319      0.0000
    12         H         -5.7320      3.3544      0.0000
    13         H         -5.6890      0.8743      0.0000
    14         H         -3.5385     -0.3295      0.0000
    15         H         -1.1338      4.6749      0.0000
    16         H          1.0167      3.4710      0.0000
    17         H          1.0595      0.9909      0.0000
    18         H         -1.0482     -0.2864      0.0000

 General Reference for PM7:
 "Optimization of Parameters for Semiempirical Methods VI: More Modifications to the 
 NDDO Approximations and Re-optimization of Parameters", J. J. P. Stewart, J. Mol. Mod., 1:32, 19 (2013)
 https://link.springer.com/article/10.1007/s00894-012-1667-x

           Empirical Formula: C10 H8  =    18 atoms



      MOLECULAR POINT GROUP   :   D2h 


 SINGLET STATE CALCULATION


      RHF CALCULATION, NO. OF DOUBLY OCCUPIED LEVELS = 24


          Geometry optimization using EF

          DIAGONAL MATRIX USED AS START HESSIAN

 CYCLE:     1 TIME:   0.125 TIME LEFT:  2.00D  GRAD.:   103.574 HEAT:  42.11263
 CYCLE:     2 TIME:   0.109 TIME LEFT:  2.00D  GRAD.:    92.254 HEAT:  41.36630
 CYCLE:     3 TIME:   0.051 TIME LEFT:  2.00D  GRAD.:    63.472 HEAT:  40.62753
 CYCLE:     4 TIME:   0.102 TIME LEFT:  2.00D  GRAD.:    21.815 HEAT:  39.86954
 CYCLE:     5 TIME:   0.102 TIME LEFT:  2.00D  GRAD.:     7.789 HEAT:  39.76784
 CYCLE:     6 TIME:   0.051 TIME LEFT:  2.00D  GRAD.:     4.519 HEAT:  39.74491
 CYCLE:     7 TIME:   0.102 TIME LEFT:  2.00D  GRAD.:     3.647 HEAT:  39.73368
 CYCLE:     8 TIME:   0.047 TIME LEFT:  2.00D  GRAD.:     5.161 HEAT:  39.72505
 CYCLE:     9 TIME:   0.047 TIME LEFT:  2.00D  GRAD.:     2.117 HEAT:  39.71717
 CYCLE:    10 TIME:   0.051 TIME LEFT:  2.00D  GRAD.:     2.567 HEAT:  39.71663
 CYCLE:    11 TIME:   0.047 TIME LEFT:  2.00D  GRAD.:     1.252 HEAT:  39.71512
 CYCLE:    12 TIME:   0.047 TIME LEFT:  2.00D  GRAD.:     0.576 HEAT:  39.71433
 CYCLE:    13 TIME:   0.051 TIME LEFT:  2.00D  GRAD.:     0.867 HEAT:  39.71396
 CYCLE:    14 TIME:   0.043 TIME LEFT:  2.00D  GRAD.:     1.199 HEAT:  39.71395
 CYCLE:    15 TIME:   0.047 TIME LEFT:  2.00D  GRAD.:     0.932 HEAT:  39.71377
 CYCLE:    16 TIME:   0.055 TIME LEFT:  2.00D  GRAD.:     0.512 HEAT:  39.71367
 CYCLE:    17 TIME:   0.047 TIME LEFT:  2.00D  GRAD.:     0.173 HEAT:  39.71360
 CYCLE:    18 TIME:   0.047 TIME LEFT:  2.00D  GRAD.:     0.386 HEAT:  39.71362
 CYCLE:    19 TIME:   0.043 TIME LEFT:  2.00D  GRAD.:     0.070 HEAT:  39.71359
 CYCLE:    20 TIME:   0.047 TIME LEFT:  2.00D  GRAD.:     0.052 HEAT:  39.71359
 CYCLE:    21 TIME:   0.047 TIME LEFT:  2.00D  GRAD.:     0.047 HEAT:  39.71358

     GRADIENT =  0.04661 IS LESS THAN CUTOFF =  0.05000



 -------------------------------------------------------------------------------
 PRECISE LARGE CHARGE=0 SINGLET  PM7
 naftalene



     GEOMETRY OPTIMISED USING EIGENVECTOR FOLLOWING (EF).     
     SCF FIELD WAS ACHIEVED                                   


                              PM7 CALCULATION
                                                       MOPAC v22.1.0 Windows
                                                       Wed Jan 31 17:04:24 2024




          FINAL HEAT OF FORMATION =         39.71358 KCAL/MOL =     166.16164 KJ/MOL


          COSMO AREA              =        166.43 SQUARE ANGSTROMS
          COSMO VOLUME            =        166.49 CUBIC ANGSTROMS

          GRADIENT NORM           =          0.04661          =       0.01099 PER ATOM
          IONIZATION POTENTIAL    =          8.952088 EV
          HOMO LUMO ENERGIES (EV) =         -8.952 -0.547
          NO. OF FILLED LEVELS    =         24
          MOLECULAR WEIGHT        =        128.1732         POINT GROUP:  D2h 

          MOLECULAR DIMENSIONS (Angstroms)

            Atom       Atom       Distance
            H    17    H    12     7.19152
            H    15    H    14     5.52149
            H    13    C     5     0.00000


          SCF CALCULATIONS        =         25
 
          WALL-CLOCK TIME         =      1.383 SECONDS
          COMPUTATION TIME        =      5.844 SECONDS




   ATOM   CHEMICAL          X               Y               Z
  NUMBER   SYMBOL      (ANGSTROMS)     (ANGSTROMS)     (ANGSTROMS)
 
     1       C         -3.60112059  *   3.55261355  *   0.00000000  *
     2       C         -4.77188936  *   2.83970610  *  -0.00000001  *
     3       C         -4.74739454  *   1.42196263  *  -0.00000000  *
     4       C         -3.55267634  *   0.74993466  *  -0.00000000  *
     5       C         -2.32402193  *   1.46686724  *   0.00000001  *
     6       C         -2.34841853  *   2.87859263  *   0.00000000  *
     7       C         -1.11976316  *   3.59548256  *   0.00000000  *
     8       C          0.07494966  *   2.92345840  *  -0.00000001  *
     9       C          0.09943983  *   1.50573347  *  -0.00000000  *
    10       C         -1.07133214  *   0.79282125  *  -0.00000000  *
    11       H         -3.60891009  *   4.64103631  *   0.00000000  *
    12       H         -5.73458428  *   3.34771355  *  -0.00000001  *
    13       H         -5.69194694  *   0.88098588  *  -0.00000001  *
    14       H         -3.52283249  *  -0.33810102  *   0.00000000  *
    15       H         -1.14958504  *   4.68354455  *   0.00000000  *
    16       H          1.01951081  *   3.46443255  *  -0.00000001  *
    17       H          1.06213126  *   0.99770176  *  -0.00000001  *
    18       H         -1.06356322  *  -0.29559953  *   0.00000000  *

                             CARTESIAN COORDINATES

   1    C       -3.601120590     3.552613547     0.000000005
   2    C       -4.771889364     2.839706098    -0.000000006
   3    C       -4.747394542     1.421962628    -0.000000001
   4    C       -3.552676339     0.749934662    -0.000000001
   5    C       -2.324021933     1.466867240     0.000000010
   6    C       -2.348418527     2.878592626     0.000000000
   7    C       -1.119763163     3.595482561     0.000000004
   8    C        0.074949663     2.923458400    -0.000000006
   9    C        0.099439829     1.505733465    -0.000000001
  10    C       -1.071332142     0.792821247    -0.000000001
  11    H       -3.608910086     4.641036309     0.000000003
  12    H       -5.734584276     3.347713551    -0.000000007
  13    H       -5.691946936     0.880985881    -0.000000008
  14    H       -3.522832491    -0.338101017     0.000000004
  15    H       -1.149585045     4.683544552     0.000000003
  16    H        1.019510811     3.464432553    -0.000000007
  17    H        1.062131258     0.997701764    -0.000000008
  18    H       -1.063563222    -0.295599531     0.000000004


           Empirical Formula: C10 H8  =    18 atoms



      MOLECULAR POINT GROUP   :   D2h 


                  EIGENVALUES  
 -31.04998 -29.26666 -26.91842 -25.47115 -24.82031 -21.52979 -21.20216 -20.91201
 -17.62691 -17.00214 -16.74947 -15.04453 -14.97633 -14.18846 -14.18718 -14.12760
 -13.53249 -12.65036 -12.12230 -11.81760 -11.58982 -10.77380  -9.46894  -8.95209
  -0.54723  -0.07095   0.87008   1.75628   2.89337   3.95565   3.96134   4.63391
   4.82973   4.87243   4.95618   5.06207   5.10897   5.42904   5.72036   5.72682
   5.91711   5.93127   6.09387   6.11481   6.11847   6.14879   6.26077   6.28457


              NET ATOMIC CHARGES AND DIPOLE CONTRIBUTIONS

  ATOM NO.   TYPE          CHARGE      No. of ELECS.   s-Pop       p-Pop       
    1          C          -0.155110        4.1551     1.08530     3.06981
    2          C          -0.146125        4.1461     1.08322     3.06291
    3          C          -0.146123        4.1461     1.08322     3.06291
    4          C          -0.155111        4.1551     1.08530     3.06981
    5          C          -0.007715        4.0077     1.06326     2.94445
    6          C          -0.007716        4.0077     1.06325     2.94446
    7          C          -0.155112        4.1551     1.08530     3.06982
    8          C          -0.146125        4.1461     1.08321     3.06291
    9          C          -0.146126        4.1461     1.08321     3.06291
   10          C          -0.155112        4.1551     1.08530     3.06981
   11          H           0.153344        0.8467     0.84666
   12          H           0.151749        0.8483     0.84825
   13          H           0.151748        0.8483     0.84825
   14          H           0.153343        0.8467     0.84666
   15          H           0.153346        0.8467     0.84665
   16          H           0.151750        0.8482     0.84825
   17          H           0.151750        0.8483     0.84825
   18          H           0.153344        0.8467     0.84666
 DIPOLE           X         Y         Z       TOTAL
 POINT-CHG.     0.000     0.000    -0.000     0.000
 HYBRID        -0.000    -0.000     0.000     0.000
 SUM            0.000     0.000    -0.000     0.000


          ATOMIC ORBITAL ELECTRON POPULATIONS

     Atom    s        px        py        pz   
    1  C   1.08530   0.98472   1.07969   1.00540
    2  C   1.08322   1.05775   1.00568   0.99947
    3  C   1.08322   1.05505   1.00838   0.99947
    4  C   1.08530   0.98511   1.07930   1.00540
    5  C   1.06326   0.97431   0.97990   0.99025
    6  C   1.06325   0.97431   0.97990   0.99025
    7  C   1.08530   0.98511   1.07931   1.00540
    8  C   1.08321   1.05505   1.00838   0.99948
    9  C   1.08321   1.05775   1.00568   0.99947
   10  C   1.08530   0.98472   1.07969   1.00540
   11  H   0.84666
   12  H   0.84825
   13  H   0.84825
   14  H   0.84666
   15  H   0.84665
   16  H   0.84825
   17  H   0.84825
   18  H   0.84666

 **********************
 *                    *
 * JOB ENDED NORMALLY *
 *                    *
 **********************



 TOTAL JOB TIME:             1.39 SECONDS

 == MOPAC DONE ==
