 *******************************************************************************
 **                                                                           **
 **                              MOPAC v22.1.0                                **
 **                                                                           **
 *******************************************************************************
 **          Digital Object Identifier (DOI): 10.5281/zenodo.6511958          **
 **    Visit the DOI location for information on how to cite this program.    **
 *******************************************************************************

                              PM7 CALCULATION RESULTS

 *******************************************************************************
 *  CALCULATION DONE:                                Thu Jan  4 13:06:20 2024  *
 *  PM7        - The PM7 Hamiltonian to be used
 *  SINGLET    - SPIN STATE DEFINED AS A SINGLET
 *
 *
 *
 *                 CHARGE ON SYSTEM = 0
 *
 *
 *
 *  PRECISE    - TIGHTER CRITERIA TO BE USED
 *  T=         - A TIME OF 172800.0 SECONDS REQUESTED
 *  DUMP=N     - RESTART FILE WRITTEN EVERY 7200.0 SECONDS REQUESTED
 *  LARGE      - EXPANDED OUTPUT TO BE PRINTED
 *  GRAPH      - GENERATE FILE FOR GRAPHICS
 *  ALLVEC     - PRINT ALL EIGENVECTORS
 *******************************************************************************
 LARGE PRECISE ALLVEC CHARGE=0 SINGLET GRAPHF PM7
 Benzene - PM7, geopt.opt

   ATOM   CHEMICAL          X               Y               Z
  NUMBER   SYMBOL      (ANGSTROMS)     (ANGSTROMS)     (ANGSTROMS)
 
     1       C         -5.83354000  *   2.04818000  *   0.00000000  *
     2       C         -4.46582000  *   2.34253000  *   0.00000000  *
     3       C         -3.52704000  *   1.30522000  *   0.00000000  *
     4       C         -3.95598000  *  -0.02644000  *   0.00000000  *
     5       C         -5.32371000  *  -0.32080000  *   0.00000000  *
     6       C         -6.26249000  *   0.71651000  *   0.00000000  *
     7       H         -4.13397000  *   3.37274000  *   0.00000000  *
     8       H         -2.46893000  *   1.53294000  *   0.00000000  *
     9       H         -3.22972000  *  -0.82894000  *   0.00000000  *
    10       H         -5.65556000  *  -1.35101000  *   0.00000000  *
    11       H         -7.32060000  *   0.48879000  *   0.00000000  *
    12       H         -6.55981000  *   2.85067000  *   0.00000000  *
 


          CARTESIAN COORDINATES 

    NO.       ATOM           X           Y           Z

     1         C         -5.8335      2.0482      0.0000
     2         C         -4.4658      2.3425      0.0000
     3         C         -3.5270      1.3052      0.0000
     4         C         -3.9560     -0.0264      0.0000
     5         C         -5.3237     -0.3208      0.0000
     6         C         -6.2625      0.7165      0.0000
     7         H         -4.1340      3.3727      0.0000
     8         H         -2.4689      1.5329      0.0000
     9         H         -3.2297     -0.8289      0.0000
    10         H         -5.6556     -1.3510      0.0000
    11         H         -7.3206      0.4888      0.0000
    12         H         -6.5598      2.8507      0.0000

 General Reference for PM7:
 "Optimization of Parameters for Semiempirical Methods VI: More Modifications to the 
 NDDO Approximations and Re-optimization of Parameters", J. J. P. Stewart, J. Mol. Mod., 1:32, 19 (2013)
 https://link.springer.com/article/10.1007/s00894-012-1667-x

           Empirical Formula: C6 H6  =    12 atoms



      MOLECULAR POINT GROUP   :   D6h 


 SINGLET STATE CALCULATION


      RHF CALCULATION, NO. OF DOUBLY OCCUPIED LEVELS = 15


          Geometry optimization using EF

          DIAGONAL MATRIX USED AS START HESSIAN

 CYCLE:     1 TIME:   0.031 TIME LEFT:  2.00D  GRAD.:    25.710 HEAT:  23.11316
 CYCLE:     2 TIME:   0.031 TIME LEFT:  2.00D  GRAD.:    17.634 HEAT:  23.03008
 CYCLE:     3 TIME:   0.016 TIME LEFT:  2.00D  GRAD.:     7.263 HEAT:  22.96508
 CYCLE:     4 TIME:   0.047 TIME LEFT:  2.00D  GRAD.:     7.021 HEAT:  22.96447
 CYCLE:     5 TIME:   0.016 TIME LEFT:  2.00D  GRAD.:     3.622 HEAT:  22.95798
 CYCLE:     6 TIME:   0.016 TIME LEFT:  2.00D  GRAD.:     5.328 HEAT:  22.96038
 CYCLE:     7 TIME:   0.016 TIME LEFT:  2.00D  GRAD.:     0.403 HEAT:  22.95551
 CYCLE:     8 TIME:   0.031 TIME LEFT:  2.00D  GRAD.:     0.331 HEAT:  22.95547
 CYCLE:     9 TIME:   0.016 TIME LEFT:  2.00D  GRAD.:     0.081 HEAT:  22.95542
 CYCLE:    10 TIME:   0.016 TIME LEFT:  2.00D  GRAD.:     0.087 HEAT:  22.95542
 CYCLE:    11 TIME:   0.016 TIME LEFT:  2.00D  GRAD.:     0.167 HEAT:  22.95542
 CYCLE:    12 TIME:   0.016 TIME LEFT:  2.00D  GRAD.:     0.049 HEAT:  22.95541

     GRADIENT =  0.04859 IS LESS THAN CUTOFF =  0.05000



 -------------------------------------------------------------------------------
 LARGE PRECISE ALLVEC CHARGE=0 SINGLET GRAPHF PM7
 Benzene - PM7, geopt.opt



     GEOMETRY OPTIMISED USING EIGENVECTOR FOLLOWING (EF).     
     SCF FIELD WAS ACHIEVED                                   


                              PM7 CALCULATION
                                                       MOPAC v22.1.0 Windows
                                                       Thu Jan  4 13:06:21 2024




          FINAL HEAT OF FORMATION =         22.95541 KCAL/MOL =      96.04545 KJ/MOL


          COSMO AREA              =        119.70 SQUARE ANGSTROMS
          COSMO VOLUME            =        108.27 CUBIC ANGSTROMS

          GRADIENT NORM           =          0.04859          =       0.01403 PER ATOM
          IONIZATION POTENTIAL    =          9.824109 EV
          HOMO LUMO ENERGIES (EV) =         -9.824  0.236
          NO. OF FILLED LEVELS    =         15
          MOLECULAR WEIGHT        =         78.1134         POINT GROUP:  D6h 

          MOLECULAR DIMENSIONS (Angstroms)

            Atom       Atom       Distance
            H    10    H     7     4.96374
            H    11    H     8     4.29876
            H     9    C     2     0.00000


          SCF CALCULATIONS        =         15
 
          WALL-CLOCK TIME         =      0.328 SECONDS
          COMPUTATION TIME        =      1.719 SECONDS




   ATOM   CHEMICAL          X               Y               Z
  NUMBER   SYMBOL      (ANGSTROMS)     (ANGSTROMS)     (ANGSTROMS)
 
     1       C         -5.83015046  *   2.04441650  *   0.00000000  *
     2       C         -4.46735732  *   2.33774178  *  -0.00000000  *
     3       C         -3.53195726  *   1.30417157  *  -0.00000000  *
     4       C         -3.95937966  *  -0.02270126  *  -0.00000000  *
     5       C         -5.32216964  *  -0.31600053  *  -0.00000000  *
     6       C         -6.25756754  *   0.71756995  *  -0.00000000  *
     7       H         -4.13384758  *   3.37321300  *   0.00000000  *
     8       H         -2.46844718  *   1.53303217  *   0.00000000  *
     9       H         -3.22941005  *  -0.82929965  *   0.00000000  *
    10       H         -5.65568015  *  -1.35148334  *   0.00000000  *
    11       H         -7.32108042  *   0.48870022  *   0.00000000  *
    12       H         -6.56011814  *   2.85103447  *   0.00000000  *

                             CARTESIAN COORDINATES

   1    C       -5.830150465     2.044416499     0.000000000
   2    C       -4.467357317     2.337741783    -0.000000000
   3    C       -3.531957256     1.304171565    -0.000000000
   4    C       -3.959379658    -0.022701257    -0.000000000
   5    C       -5.322169638    -0.316000530    -0.000000000
   6    C       -6.257567539     0.717569947    -0.000000000
   7    H       -4.133847583     3.373213003     0.000000001
   8    H       -2.468447184     1.533032172     0.000000001
   9    H       -3.229410052    -0.829299646     0.000000001
  10    H       -5.655680151    -1.351483338     0.000000001
  11    H       -7.321080423     0.488700220     0.000000001
  12    H       -6.560118140     2.851034467     0.000000000


           Empirical Formula: C6 H6  =    12 atoms



      MOLECULAR POINT GROUP   :   D6h 


                EIGENVECTORS  


   Root No.       1         2         3         4         5         6         7         8

                 1 a1g     1 e1u     1 e1u     1 e2g     1 e2g     2 a1g     1 b2u     1 b1u 

               -30.440   -25.827   -25.827   -20.913   -20.913   -18.072   -15.393   -15.222
  
  S   C    1    0.3685    0.1145   -0.4654   -0.0876    0.3420   -0.0563    0.2065    0.0000
  Px  C    1    0.0933    0.1676    0.0420   -0.2305   -0.1595    0.2213   -0.1528   -0.3027
  Py  C    1   -0.1031    0.1520    0.0365   -0.2571    0.0451   -0.2445    0.1689   -0.2739
  Pz  C    1   -0.0000   -0.0000    0.0000    0.0000    0.0000   -0.0000    0.0000    0.0000
  S   C    2    0.3685    0.4603   -0.1336   -0.2524   -0.2469   -0.0563   -0.2065   -0.0000
  Px  C    2   -0.0426    0.0622    0.2129    0.2042   -0.2723   -0.1011   -0.0699    0.3886
  Py  C    2   -0.1323   -0.0188   -0.0689   -0.1747   -0.0188   -0.3139   -0.2168   -0.1252
  Pz  C    2    0.0000    0.0000   -0.0000   -0.0000   -0.0000   -0.0000   -0.0000   -0.0000
  S   C    3    0.3685    0.3458    0.3318    0.3400   -0.0951   -0.0563    0.2065    0.0000
  Px  C    3   -0.1359   -0.0331    0.0362    0.1566    0.0336   -0.3224    0.2227   -0.0859
  Py  C    3   -0.0293    0.1579   -0.1642   -0.0640   -0.3420   -0.0694    0.0479    0.3991
  Pz  C    3   -0.0000    0.0000    0.0000    0.0000    0.0000   -0.0000    0.0000   -0.0000
  S   C    4    0.3685   -0.1145    0.4654   -0.0876    0.3420   -0.0563   -0.2065   -0.0000
  Px  C    4   -0.0933    0.1676    0.0420    0.2305    0.1595   -0.2213   -0.1528   -0.3027
  Py  C    4    0.1031    0.1520    0.0365    0.2571   -0.0451    0.2445    0.1689   -0.2739
  Pz  C    4    0.0000   -0.0000    0.0000    0.0000    0.0000   -0.0000   -0.0000   -0.0000
  S   C    5    0.3685   -0.4603    0.1336   -0.2524   -0.2469   -0.0563    0.2065    0.0000
  Px  C    5    0.0426    0.0622    0.2129   -0.2042    0.2723    0.1011   -0.0699    0.3886
  Py  C    5    0.1323   -0.0188   -0.0689    0.1747    0.0188    0.3139   -0.2168   -0.1252
  Pz  C    5    0.0000   -0.0000    0.0000   -0.0000   -0.0000   -0.0000    0.0000    0.0000
  S   C    6    0.3685   -0.3458   -0.3318    0.3400   -0.0952   -0.0563   -0.2065   -0.0000
  Px  C    6    0.1359   -0.0331    0.0362   -0.1566   -0.0336    0.3224    0.2227   -0.0859
  Py  C    6    0.0293    0.1579   -0.1642    0.0640    0.3420    0.0694    0.0479    0.3991
  Pz  C    6    0.0000   -0.0000   -0.0000    0.0000    0.0000   -0.0000   -0.0000    0.0000
  S   H    7    0.1073    0.2133   -0.0619   -0.1780   -0.1741   -0.2339   -0.2686   -0.0000
  S   H    8    0.1073    0.1603    0.1538    0.2397   -0.0671   -0.2339    0.2686    0.0000
  S   H    9    0.1073   -0.0530    0.2157   -0.0618    0.2412   -0.2339   -0.2686   -0.0000
  S   H   10    0.1073   -0.2133    0.0619   -0.1780   -0.1741   -0.2339    0.2686    0.0000
  S   H   11    0.1073   -0.1603   -0.1538    0.2397   -0.0671   -0.2339   -0.2686   -0.0000
  S   H   12    0.1073    0.0530   -0.2157   -0.0618    0.2411   -0.2339    0.2686   -0.0000


   Root No.       9        10        11        12        13        14        15        16

                 2 e1u     2 e1u     1 a2u     2 e2g     2 e2g     1 e1g     1 e1g     1 e2u 

               -14.259   -14.259   -13.427   -11.938   -11.938    -9.824    -9.824     0.236
  
  S   C    1   -0.0030   -0.0747   -0.0000   -0.0014    0.0136    0.0000   -0.0000   -0.0000
  Px  C    1   -0.1116   -0.3109    0.0000   -0.2424   -0.2549    0.0000   -0.0000   -0.0000
  Py  C    1   -0.0754    0.3516   -0.0000   -0.2662    0.2270   -0.0000    0.0000   -0.0000
  Pz  C    1    0.0000    0.0000    0.4083   -0.0000    0.0000    0.2553   -0.5178   -0.1600
  S   C    2   -0.0662   -0.0347   -0.0000    0.0125   -0.0056   -0.0000    0.0000    0.0000
  Px  C    2    0.0685    0.1794   -0.0000    0.2358    0.2701   -0.0000    0.0000    0.0000
  Py  C    2    0.4149    0.1715   -0.0000    0.2511   -0.2336   -0.0000    0.0000    0.0000
  Pz  C    2    0.0000    0.0000    0.4082    0.0000    0.0000    0.5761   -0.0378   -0.4004
  S   C    3   -0.0632    0.0400   -0.0000   -0.0111   -0.0080    0.0000    0.0000   -0.0000
  Px  C    3    0.4031   -0.2217   -0.0000   -0.2259   -0.2567   -0.0000   -0.0000   -0.0000
  Py  C    3    0.0137   -0.1631   -0.0000   -0.2644    0.2435   -0.0000    0.0000   -0.0000
  Pz  C    3    0.0000   -0.0000    0.4082   -0.0000   -0.0000    0.3208    0.4800    0.5604
  S   C    4    0.0030    0.0747   -0.0000   -0.0014    0.0136    0.0000   -0.0000    0.0000
  Px  C    4   -0.1116   -0.3110   -0.0000    0.2424    0.2549    0.0000   -0.0000    0.0000
  Py  C    4   -0.0754    0.3516    0.0000    0.2663   -0.2270   -0.0000    0.0000   -0.0000
  Pz  C    4    0.0000   -0.0000    0.4082   -0.0000    0.0000   -0.2553    0.5178   -0.1600
  S   C    5    0.0662    0.0347   -0.0000    0.0125   -0.0056    0.0000   -0.0000    0.0000
  Px  C    5    0.0685    0.1794    0.0000   -0.2358   -0.2701   -0.0000    0.0000   -0.0000
  Py  C    5    0.4149    0.1715    0.0000   -0.2511    0.2337   -0.0000    0.0000   -0.0000
  Pz  C    5   -0.0000   -0.0000    0.4083    0.0000    0.0000   -0.5761    0.0378   -0.4004
  S   C    6    0.0632   -0.0400   -0.0000   -0.0111   -0.0080    0.0000    0.0000   -0.0000
  Px  C    6    0.4031   -0.2217    0.0000    0.2259    0.2567   -0.0000   -0.0000    0.0000
  Py  C    6    0.0138   -0.1631    0.0000    0.2644   -0.2435    0.0000    0.0000    0.0000
  Pz  C    6   -0.0000    0.0000    0.4083   -0.0000   -0.0000   -0.3208   -0.4800    0.5604
  S   H    7    0.2646    0.1388    0.0000    0.2691   -0.1207    0.0000    0.0000   -0.0000
  S   H    8    0.2525   -0.1597   -0.0000   -0.2391   -0.1727   -0.0000   -0.0000    0.0000
  S   H    9   -0.0121   -0.2986   -0.0000   -0.0300    0.2934    0.0000   -0.0000    0.0000
  S   H   10   -0.2646   -0.1388    0.0000    0.2691   -0.1207    0.0000    0.0000   -0.0000
  S   H   11   -0.2525    0.1597   -0.0000   -0.2391   -0.1727    0.0000   -0.0000    0.0000
  S   H   12    0.0121    0.2986   -0.0000   -0.0300    0.2934   -0.0000    0.0000    0.0000


   Root No.      17        18        19        20        21        22        23        24

                 1 e2u     1 b1g     3 e1u     3 e1u     1 a2g     3 e2g     3 e2g     3 a1g 

                 0.236     2.580     4.424     4.424     5.046     5.338     5.338     5.522
  
  S   C    1    0.0000    0.0000    0.1031   -0.0223   -0.0000    0.3554    0.0295   -0.1665
  Px  C    1    0.0000   -0.0000    0.2409    0.2844    0.3027    0.2254    0.2146    0.1317
  Py  C    1   -0.0000    0.0000   -0.1265    0.3318    0.2739   -0.2815    0.1540   -0.1456
  Pz  C    1    0.5547   -0.4083   -0.0000   -0.0000   -0.0000   -0.0000   -0.0000   -0.0000
  S   C    2    0.0000   -0.0000    0.0322   -0.1004    0.0000   -0.1522   -0.3226   -0.1663
  Px  C    2    0.0000   -0.0000    0.3775    0.2054    0.3886    0.2739   -0.0068   -0.0603
  Py  C    2    0.0000   -0.0000   -0.2055    0.1953   -0.1252    0.0737    0.3454   -0.1869
  Pz  C    2   -0.4159    0.4082   -0.0000    0.0000   -0.0000   -0.0000   -0.0000   -0.0000
  S   C    3   -0.0000    0.0000   -0.0708   -0.0782   -0.0000   -0.2033    0.2931   -0.1664
  Px  C    3    0.0000    0.0000    0.2407    0.1266    0.0859    0.1557   -0.3218   -0.1920
  Py  C    3   -0.0000    0.0000   -0.2843    0.3320   -0.3991    0.2548    0.0842   -0.0413
  Pz  C    3   -0.1388   -0.4082    0.0000    0.0000    0.0000    0.0000   -0.0000   -0.0000
  S   C    4   -0.0000   -0.0000   -0.1031    0.0223   -0.0000    0.3554    0.0295   -0.1664
  Px  C    4   -0.0000   -0.0000    0.2409    0.2844   -0.3027   -0.2254   -0.2146   -0.1318
  Py  C    4    0.0000    0.0000   -0.1266    0.3319   -0.2739    0.2815   -0.1540    0.1456
  Pz  C    4    0.5547    0.4082    0.0000    0.0000   -0.0000   -0.0000   -0.0000   -0.0000
  S   C    5    0.0000    0.0000   -0.0323    0.1004    0.0001   -0.1522   -0.3225   -0.1664
  Px  C    5   -0.0000   -0.0000    0.3774    0.2054   -0.3886   -0.2739    0.0068    0.0602
  Py  C    5   -0.0000   -0.0000   -0.2055    0.1953    0.1252   -0.0737   -0.3453    0.1870
  Pz  C    5   -0.4159   -0.4083    0.0000   -0.0000   -0.0000    0.0000    0.0000   -0.0000
  S   C    6    0.0000   -0.0000    0.0708    0.0781   -0.0000   -0.2032    0.2930   -0.1664
  Px  C    6   -0.0000    0.0000    0.2408    0.1266   -0.0859   -0.1557    0.3217    0.1919
  Py  C    6    0.0000    0.0000   -0.2843    0.3320    0.3991   -0.2548   -0.0842    0.0413
  Pz  C    6   -0.1388    0.4083   -0.0000   -0.0000    0.0000    0.0000   -0.0000   -0.0000
  S   H    7   -0.0000    0.0000    0.0731   -0.2276   -0.0000   -0.0339   -0.0719    0.3169
  S   H    8    0.0000   -0.0000   -0.1606   -0.1771   -0.0000   -0.0453    0.0654    0.3169
  S   H    9    0.0000    0.0000   -0.2337    0.0505    0.0000    0.0793    0.0066    0.3169
  S   H   10   -0.0000   -0.0000   -0.0731    0.2277    0.0000   -0.0339   -0.0719    0.3169
  S   H   11   -0.0000    0.0000    0.1606    0.1771    0.0000   -0.0453    0.0654    0.3168
  S   H   12   -0.0000   -0.0000    0.2337   -0.0505   -0.0000    0.0793    0.0066    0.3169


   Root No.      25        26        27        28        29        30

                 2 b2u     4 e2g     4 e2g     4 e1u     4 e1u     3 b2u 

                 5.833     6.115     6.116     6.194     6.195     6.411
  
  S   C    1   -0.3289   -0.2850    0.0098    0.2888   -0.0584   -0.1260
  Px  C    1   -0.0090    0.1740    0.0625   -0.1759   -0.1565   -0.2271
  Py  C    1    0.0100   -0.1875    0.0684    0.1193   -0.1980    0.2510
  Pz  C    1   -0.0000   -0.0000    0.0000   -0.0000    0.0000    0.0000
  S   C    2    0.3289    0.1340   -0.2516    0.1952    0.2211    0.1259
  Px  C    2   -0.0041   -0.0407   -0.1105    0.2240   -0.1115   -0.1038
  Py  C    2   -0.0128    0.1395   -0.2016    0.0744    0.2019   -0.3222
  Pz  C    2    0.0000    0.0000   -0.0000    0.0000    0.0000   -0.0000
  S   C    3   -0.3288    0.1510    0.2419   -0.0939    0.2794   -0.1259
  Px  C    3    0.0131    0.1489    0.2020   -0.0149    0.2122    0.3310
  Py  C    3    0.0028   -0.0480    0.0934   -0.2495   -0.0370    0.0712
  Pz  C    3   -0.0000    0.0000    0.0000   -0.0000    0.0000    0.0000
  S   C    4    0.3289   -0.2849    0.0097   -0.2890    0.0585    0.1259
  Px  C    4   -0.0090   -0.1738   -0.0626   -0.1760   -0.1565   -0.2272
  Py  C    4    0.0099    0.1874   -0.0684    0.1194   -0.1980    0.2510
  Pz  C    4    0.0000   -0.0000    0.0000   -0.0000    0.0000   -0.0000
  S   C    5   -0.3289    0.1341   -0.2517   -0.1950   -0.2210   -0.1259
  Px  C    5   -0.0041    0.0406    0.1106    0.2239   -0.1116   -0.1038
  Py  C    5   -0.0128   -0.1395    0.2017    0.0742    0.2018   -0.3222
  Pz  C    5   -0.0000    0.0000   -0.0000   -0.0000   -0.0000    0.0000
  S   C    6    0.3289    0.1509    0.2419    0.0939   -0.2795    0.1259
  Px  C    6    0.0131   -0.1489   -0.2019   -0.0149    0.2123    0.3309
  Py  C    6    0.0028    0.0482   -0.0935   -0.2494   -0.0370    0.0712
  Pz  C    6    0.0000    0.0000    0.0000    0.0000   -0.0000   -0.0000
  S   H    7   -0.2415   -0.1983    0.3723   -0.2456   -0.2781    0.1903
  S   H    8    0.2415   -0.2234   -0.3580    0.1181   -0.3515   -0.1904
  S   H    9   -0.2415    0.4216   -0.0144    0.3637   -0.0735    0.1903
  S   H   10    0.2415   -0.1985    0.3725    0.2453    0.2780   -0.1903
  S   H   11   -0.2415   -0.2233   -0.3580   -0.1181    0.3516    0.1903
  S   H   12    0.2415    0.4218   -0.0145   -0.3633    0.0735   -0.1902


              NET ATOMIC CHARGES AND DIPOLE CONTRIBUTIONS

  ATOM NO.   TYPE          CHARGE      No. of ELECS.   s-Pop       p-Pop       
    1          C          -0.148077        4.1481     1.08350     3.06457
    2          C          -0.148075        4.1481     1.08350     3.06457
    3          C          -0.148069        4.1481     1.08350     3.06456
    4          C          -0.148078        4.1481     1.08350     3.06457
    5          C          -0.148073        4.1481     1.08350     3.06457
    6          C          -0.148072        4.1481     1.08350     3.06457
    7          H           0.148074        0.8519     0.85193
    8          H           0.148073        0.8519     0.85193
    9          H           0.148073        0.8519     0.85193
   10          H           0.148074        0.8519     0.85193
   11          H           0.148075        0.8519     0.85193
   12          H           0.148074        0.8519     0.85193
 DIPOLE           X         Y         Z       TOTAL
 POINT-CHG.    -0.000    -0.000     0.000     0.000
 HYBRID         0.000     0.000     0.000     0.000
 SUM           -0.000    -0.000     0.000     0.000


          ATOMIC ORBITAL ELECTRON POPULATIONS

     Atom    s        px        py        pz   
    1  C   1.08350   1.02793   1.03664   1.00000
    2  C   1.08350   0.99675   1.06782   1.00000
    3  C   1.08350   1.07217   0.99239   1.00000
    4  C   1.08350   1.02793   1.03664   1.00000
    5  C   1.08350   0.99675   1.06782   1.00000
    6  C   1.08350   1.07218   0.99240   1.00000
    7  H   0.85193
    8  H   0.85193
    9  H   0.85193
   10  H   0.85193
   11  H   0.85193
   12  H   0.85193

           DATA FOR GRAPH WRITTEN TO DISK

 **********************
 *                    *
 * JOB ENDED NORMALLY *
 *                    *
 **********************



 TOTAL JOB TIME:             0.33 SECONDS

 == MOPAC DONE ==
