 *******************************************************************************
 **                                                                           **
 **                              MOPAC v22.1.0                                **
 **                                                                           **
 *******************************************************************************
 **          Digital Object Identifier (DOI): 10.5281/zenodo.6511958          **
 **    Visit the DOI location for information on how to cite this program.    **
 *******************************************************************************

                              PM7 CALCULATION RESULTS

 *******************************************************************************
 *  CALCULATION DONE:                                Mon Jan 29 12:06:46 2024  *
 *  PM7        - The PM7 Hamiltonian to be used
 *  SINGLET    - SPIN STATE DEFINED AS A SINGLET
 *
 *
 *
 *                 CHARGE ON SYSTEM = +1
 *
 *
 *
 *  LET        - OVERRIDE SOME SAFETY CHECKS
 *  PRECISE    - TIGHTER CRITERIA TO BE USED
 *  T=         - A TIME OF 172800.0 SECONDS REQUESTED
 *  DUMP=N     - RESTART FILE WRITTEN EVERY 7200.0 SECONDS REQUESTED
 *  DDMIN=     - MINIMUM TRUST RADIUS  0.000 ANG/RAD
 *  LARGE      - EXPANDED OUTPUT TO BE PRINTED
 *******************************************************************************
 PRECISE LARGE CHARGE=1 SINGLET  PM7 LET DDMIN=0.0
 Na(+) + 6H2O

   ATOM   CHEMICAL          X               Y               Z
  NUMBER   SYMBOL      (ANGSTROMS)     (ANGSTROMS)     (ANGSTROMS)
 
     1      Na         -1.26920000  *   0.03969000  *   2.38633000  *
     2       H         -3.32504000  *  -1.54779000  *   1.08943000  *
     3       O         -3.56890000  *  -0.74665000  *   0.56094000  *
     4       H         -4.48135000  *  -0.93783000  *   0.22714000  *
     5       H          0.12337000  *   0.55104000  *   4.84445000  *
     6       O          0.47573000  *   1.42740000  *   4.54703000  *
     7       H         -0.33071000  *   1.95343000  *   4.31558000  *
     8       H         -0.68405000  *  -3.33083000  *   4.12594000  *
     9       O         -0.22962000  *  -2.62563000  *   3.59972000  *
    10       H         -0.95365000  *  -1.99922000  *   3.34696000  *
    11       H         -3.37963000  *   2.49112000  *   1.92519000  *
    12       O         -2.92523000  *   3.19632000  *   1.39899000  *
    13       H         -3.64933000  *   3.82272000  *   1.14629000  *
    14       H         -2.61168000  *  -3.17840000  *   2.64308000  *
    15       O         -1.77734000  *  -3.10218000  *   2.11513000  *
    16       H         -2.03772000  *  -2.58278000  *   1.31328000  *
    17       H         -1.71834000  *   2.55863000  *   3.75358000  *
    18       O         -1.01981000  *   3.05016000  *   3.25232000  *
    19       H         -1.52396000  *   3.67080000  *   2.66827000  *
 


          CARTESIAN COORDINATES 

    NO.       ATOM           X           Y           Z

     1        Na         -1.2692      0.0397      2.3863
     2         H         -3.3250     -1.5478      1.0894
     3         O         -3.5689     -0.7467      0.5609
     4         H         -4.4813     -0.9378      0.2271
     5         H          0.1234      0.5510      4.8445
     6         O          0.4757      1.4274      4.5470
     7         H         -0.3307      1.9534      4.3156
     8         H         -0.6841     -3.3308      4.1259
     9         O         -0.2296     -2.6256      3.5997
    10         H         -0.9537     -1.9992      3.3470
    11         H         -3.3796      2.4911      1.9252
    12         O         -2.9252      3.1963      1.3990
    13         H         -3.6493      3.8227      1.1463
    14         H         -2.6117     -3.1784      2.6431
    15         O         -1.7773     -3.1022      2.1151
    16         H         -2.0377     -2.5828      1.3133
    17         H         -1.7183      2.5586      3.7536
    18         O         -1.0198      3.0502      3.2523
    19         H         -1.5240      3.6708      2.6683

 General Reference for PM7:
 "Optimization of Parameters for Semiempirical Methods VI: More Modifications to the 
 NDDO Approximations and Re-optimization of Parameters", J. J. P. Stewart, J. Mol. Mod., 1:32, 19 (2013)
 https://link.springer.com/article/10.1007/s00894-012-1667-x

           Empirical Formula: H12 O6 Na  =    19 atoms



      MOLECULAR POINT GROUP   :   C1  


 SINGLET STATE CALCULATION


      RHF CALCULATION, NO. OF DOUBLY OCCUPIED LEVELS = 24


          Geometry optimization using EF

          DIAGONAL MATRIX USED AS START HESSIAN

 CYCLE:     1 TIME:   0.051 TIME LEFT:  2.00D  GRAD.:   118.075 HEAT: -167.8319
 CYCLE:     2 TIME:   0.035 TIME LEFT:  2.00D  GRAD.:   105.368 HEAT: -178.0270
 CYCLE:     3 TIME:   0.039 TIME LEFT:  2.00D  GRAD.:   118.558 HEAT: -189.2421
 CYCLE:     4 TIME:   0.039 TIME LEFT:  2.00D  GRAD.:   110.868 HEAT: -205.5833
 CYCLE:     5 TIME:   0.031 TIME LEFT:  2.00D  GRAD.:   149.420 HEAT: -213.0575
 CYCLE:     6 TIME:   0.020 TIME LEFT:  2.00D  GRAD.:   100.110 HEAT: -224.6908
 CYCLE:     7 TIME:   0.023 TIME LEFT:  2.00D  GRAD.:   124.565 HEAT: -228.0169
 CYCLE:     8 TIME:   0.023 TIME LEFT:  2.00D  GRAD.:    94.938 HEAT: -235.5575
 CYCLE:     9 TIME:   0.023 TIME LEFT:  2.00D  GRAD.:   150.982 HEAT: -232.4030
 CYCLE:    10 TIME:   0.023 TIME LEFT:  2.00D  GRAD.:    75.590 HEAT: -241.7132
 CYCLE:    11 TIME:   0.027 TIME LEFT:  2.00D  GRAD.:   122.171 HEAT: -238.9154
 CYCLE:    12 TIME:   0.027 TIME LEFT:  2.00D  GRAD.:    38.222 HEAT: -246.6000
 CYCLE:    13 TIME:   0.020 TIME LEFT:  2.00D  GRAD.:    50.837 HEAT: -247.2574
 CYCLE:    14 TIME:   0.023 TIME LEFT:  2.00D  GRAD.:    32.183 HEAT: -249.0685
 CYCLE:    15 TIME:   0.023 TIME LEFT:  2.00D  GRAD.:    41.505 HEAT: -250.3867
 CYCLE:    16 TIME:   0.027 TIME LEFT:  2.00D  GRAD.:    39.778 HEAT: -251.7857
 CYCLE:    17 TIME:   0.023 TIME LEFT:  2.00D  GRAD.:    36.562 HEAT: -253.5485
 CYCLE:    18 TIME:   0.047 TIME LEFT:  2.00D  GRAD.:    39.898 HEAT: -254.3012
 CYCLE:    19 TIME:   0.043 TIME LEFT:  2.00D  GRAD.:    22.782 HEAT: -255.2050
 CYCLE:    20 TIME:   0.027 TIME LEFT:  2.00D  GRAD.:    20.574 HEAT: -255.7423
 CYCLE:    21 TIME:   0.031 TIME LEFT:  2.00D  GRAD.:    23.492 HEAT: -256.3922
 CYCLE:    22 TIME:   0.023 TIME LEFT:  2.00D  GRAD.:    21.996 HEAT: -257.1654
 CYCLE:    23 TIME:   0.023 TIME LEFT:  2.00D  GRAD.:    20.866 HEAT: -257.8671
 CYCLE:    24 TIME:   0.027 TIME LEFT:  2.00D  GRAD.:    17.982 HEAT: -258.3026
 CYCLE:    25 TIME:   0.023 TIME LEFT:  2.00D  GRAD.:    17.100 HEAT: -258.7061
 CYCLE:    26 TIME:   0.023 TIME LEFT:  2.00D  GRAD.:    20.839 HEAT: -259.5146
 CYCLE:    27 TIME:   0.020 TIME LEFT:  2.00D  GRAD.:    31.024 HEAT: -260.0075
 CYCLE:    28 TIME:   0.031 TIME LEFT:  2.00D  GRAD.:    19.384 HEAT: -260.7268
 CYCLE:    29 TIME:   0.020 TIME LEFT:  2.00D  GRAD.:    27.133 HEAT: -260.8816
 CYCLE:    30 TIME:   0.023 TIME LEFT:  2.00D  GRAD.:    16.232 HEAT: -261.5491
 CYCLE:    31 TIME:   0.020 TIME LEFT:  2.00D  GRAD.:    28.248 HEAT: -262.3494
 CYCLE:    32 TIME:   0.023 TIME LEFT:  2.00D  GRAD.:    31.299 HEAT: -262.7143
 CYCLE:    33 TIME:   0.020 TIME LEFT:  2.00D  GRAD.:    25.720 HEAT: -263.5758
 CYCLE:    34 TIME:   0.027 TIME LEFT:  2.00D  GRAD.:    26.082 HEAT: -264.3612
 CYCLE:    35 TIME:   0.023 TIME LEFT:  2.00D  GRAD.:    24.890 HEAT: -264.7560
 CYCLE:    36 TIME:   0.023 TIME LEFT:  2.00D  GRAD.:    16.173 HEAT: -265.0824
 CYCLE:    37 TIME:   0.023 TIME LEFT:  2.00D  GRAD.:    13.942 HEAT: -265.3917
 CYCLE:    38 TIME:   0.023 TIME LEFT:  2.00D  GRAD.:    13.321 HEAT: -265.7109
 CYCLE:    39 TIME:   0.027 TIME LEFT:  2.00D  GRAD.:    19.169 HEAT: -266.2767
 CYCLE:    40 TIME:   0.027 TIME LEFT:  2.00D  GRAD.:    18.905 HEAT: -266.6263
 CYCLE:    41 TIME:   0.020 TIME LEFT:  2.00D  GRAD.:    13.671 HEAT: -267.1488
 CYCLE:    42 TIME:   0.023 TIME LEFT:  2.00D  GRAD.:    14.506 HEAT: -267.8065
 CYCLE:    43 TIME:   0.023 TIME LEFT:  2.00D  GRAD.:    15.304 HEAT: -268.1920
 CYCLE:    44 TIME:   0.023 TIME LEFT:  2.00D  GRAD.:    16.826 HEAT: -268.7164
 CYCLE:    45 TIME:   0.023 TIME LEFT:  2.00D  GRAD.:    19.455 HEAT: -269.2146
 CYCLE:    46 TIME:   0.020 TIME LEFT:  2.00D  GRAD.:    22.292 HEAT: -269.8585
 CYCLE:    47 TIME:   0.020 TIME LEFT:  2.00D  GRAD.:    25.193 HEAT: -270.3416
 CYCLE:    48 TIME:   0.023 TIME LEFT:  2.00D  GRAD.:    14.426 HEAT: -270.8610
 CYCLE:    49 TIME:   0.020 TIME LEFT:  2.00D  GRAD.:    17.950 HEAT: -271.1870
 CYCLE:    50 TIME:   0.023 TIME LEFT:  2.00D  GRAD.:    19.482 HEAT: -271.3750
 CYCLE:    51 TIME:   0.020 TIME LEFT:  2.00D  GRAD.:    14.925 HEAT: -271.6791
 CYCLE:    52 TIME:   0.020 TIME LEFT:  2.00D  GRAD.:    10.167 HEAT: -271.8739
 CYCLE:    53 TIME:   0.020 TIME LEFT:  2.00D  GRAD.:    13.814 HEAT: -272.2747
 CYCLE:    54 TIME:   0.023 TIME LEFT:  2.00D  GRAD.:    18.074 HEAT: -272.5656
 CYCLE:    55 TIME:   0.020 TIME LEFT:  2.00D  GRAD.:    15.409 HEAT: -272.8479
 CYCLE:    56 TIME:   0.020 TIME LEFT:  2.00D  GRAD.:    13.342 HEAT: -273.1462
 CYCLE:    57 TIME:   0.023 TIME LEFT:  2.00D  GRAD.:    25.316 HEAT: -273.1829
 CYCLE:    58 TIME:   0.023 TIME LEFT:  2.00D  GRAD.:    12.162 HEAT: -273.6364
 CYCLE:    59 TIME:   0.020 TIME LEFT:  2.00D  GRAD.:     8.800 HEAT: -273.7868
 CYCLE:    60 TIME:   0.023 TIME LEFT:  2.00D  GRAD.:    15.147 HEAT: -274.0333
 CYCLE:    61 TIME:   0.023 TIME LEFT:  2.00D  GRAD.:     9.833 HEAT: -274.1784
 CYCLE:    62 TIME:   0.027 TIME LEFT:  2.00D  GRAD.:     7.234 HEAT: -274.3442
 CYCLE:    63 TIME:   0.023 TIME LEFT:  2.00D  GRAD.:     9.229 HEAT: -274.5214
 CYCLE:    64 TIME:   0.023 TIME LEFT:  2.00D  GRAD.:     9.251 HEAT: -274.6443
 CYCLE:    65 TIME:   0.020 TIME LEFT:  2.00D  GRAD.:    10.177 HEAT: -274.8006
 CYCLE:    66 TIME:   0.020 TIME LEFT:  2.00D  GRAD.:    12.471 HEAT: -274.9967
 CYCLE:    67 TIME:   0.023 TIME LEFT:  2.00D  GRAD.:    13.652 HEAT: -275.1592
 CYCLE:    68 TIME:   0.023 TIME LEFT:  2.00D  GRAD.:    11.396 HEAT: -275.3211
 CYCLE:    69 TIME:   0.023 TIME LEFT:  2.00D  GRAD.:    15.467 HEAT: -275.5178
 CYCLE:    70 TIME:   0.020 TIME LEFT:  2.00D  GRAD.:    12.147 HEAT: -275.7262
 CYCLE:    71 TIME:   0.020 TIME LEFT:  2.00D  GRAD.:    13.985 HEAT: -276.0315
 CYCLE:    72 TIME:   0.023 TIME LEFT:  2.00D  GRAD.:    19.086 HEAT: -276.3823
 CYCLE:    73 TIME:   0.020 TIME LEFT:  2.00D  GRAD.:    20.304 HEAT: -276.8057
 CYCLE:    74 TIME:   0.020 TIME LEFT:  2.00D  GRAD.:    16.805 HEAT: -277.1307
 CYCLE:    75 TIME:   0.020 TIME LEFT:  2.00D  GRAD.:    27.037 HEAT: -277.3351
 CYCLE:    76 TIME:   0.027 TIME LEFT:  2.00D  GRAD.:    26.419 HEAT: -277.8283
 CYCLE:    77 TIME:   0.023 TIME LEFT:  2.00D  GRAD.:    34.832 HEAT: -277.7058
 CYCLE:    78 TIME:   0.023 TIME LEFT:  2.00D  GRAD.:    42.988 HEAT: -278.0518
 CYCLE:    79 TIME:   0.020 TIME LEFT:  2.00D  GRAD.:    19.212 HEAT: -278.7996
 CYCLE:    80 TIME:   0.020 TIME LEFT:  2.00D  GRAD.:    13.446 HEAT: -279.1196
 CYCLE:    81 TIME:   0.023 TIME LEFT:  2.00D  GRAD.:    12.223 HEAT: -279.3621
 CYCLE:    82 TIME:   0.020 TIME LEFT:  2.00D  GRAD.:    12.265 HEAT: -279.6332
 CYCLE:    83 TIME:   0.023 TIME LEFT:  2.00D  GRAD.:    12.068 HEAT: -279.7274
 CYCLE:    84 TIME:   0.023 TIME LEFT:  2.00D  GRAD.:     7.300 HEAT: -279.8294
 CYCLE:    85 TIME:   0.027 TIME LEFT:  2.00D  GRAD.:     7.431 HEAT: -279.9263
 CYCLE:    86 TIME:   0.023 TIME LEFT:  2.00D  GRAD.:     9.101 HEAT: -280.0067
 CYCLE:    87 TIME:   0.020 TIME LEFT:  2.00D  GRAD.:     6.615 HEAT: -280.0676
 CYCLE:    88 TIME:   0.023 TIME LEFT:  2.00D  GRAD.:     6.617 HEAT: -280.1812
 CYCLE:    89 TIME:   0.027 TIME LEFT:  2.00D  GRAD.:     7.846 HEAT: -280.2521
 CYCLE:    90 TIME:   0.023 TIME LEFT:  2.00D  GRAD.:     7.280 HEAT: -280.3293
 CYCLE:    91 TIME:   0.023 TIME LEFT:  2.00D  GRAD.:     6.003 HEAT: -280.3820
 CYCLE:    92 TIME:   0.023 TIME LEFT:  2.00D  GRAD.:     3.982 HEAT: -280.4094
 CYCLE:    93 TIME:   0.023 TIME LEFT:  2.00D  GRAD.:     3.528 HEAT: -280.4410
 CYCLE:    94 TIME:   0.020 TIME LEFT:  2.00D  GRAD.:     3.544 HEAT: -280.4650
 CYCLE:    95 TIME:   0.020 TIME LEFT:  2.00D  GRAD.:     3.876 HEAT: -280.4921
 CYCLE:    96 TIME:   0.023 TIME LEFT:  2.00D  GRAD.:     5.427 HEAT: -280.5257
 CYCLE:    97 TIME:   0.023 TIME LEFT:  2.00D  GRAD.:     5.381 HEAT: -280.5703
 CYCLE:    98 TIME:   0.023 TIME LEFT:  2.00D  GRAD.:     4.061 HEAT: -280.6092
 CYCLE:    99 TIME:   0.023 TIME LEFT:  2.00D  GRAD.:     2.735 HEAT: -280.6214
 CYCLE:   100 TIME:   0.023 TIME LEFT:  2.00D  GRAD.:     3.120 HEAT: -280.6323
 CYCLE:   101 TIME:   0.020 TIME LEFT:  2.00D  GRAD.:     2.330 HEAT: -280.6407
 CYCLE:   102 TIME:   0.023 TIME LEFT:  2.00D  GRAD.:     2.535 HEAT: -280.6594
 CYCLE:   103 TIME:   0.016 TIME LEFT:  2.00D  GRAD.:     1.831 HEAT: -280.6656
 CYCLE:   104 TIME:   0.027 TIME LEFT:  2.00D  GRAD.:     1.537 HEAT: -280.6736
 CYCLE:   105 TIME:   0.023 TIME LEFT:  2.00D  GRAD.:     1.280 HEAT: -280.6763
 CYCLE:   106 TIME:   0.020 TIME LEFT:  2.00D  GRAD.:     1.473 HEAT: -280.6817
 CYCLE:   107 TIME:   0.027 TIME LEFT:  2.00D  GRAD.:     1.697 HEAT: -280.6857
 CYCLE:   108 TIME:   0.023 TIME LEFT:  2.00D  GRAD.:     1.515 HEAT: -280.6893
 CYCLE:   109 TIME:   0.020 TIME LEFT:  2.00D  GRAD.:     1.636 HEAT: -280.6938
 CYCLE:   110 TIME:   0.020 TIME LEFT:  2.00D  GRAD.:     1.257 HEAT: -280.6975
 CYCLE:   111 TIME:   0.023 TIME LEFT:  2.00D  GRAD.:     1.118 HEAT: -280.7022
 CYCLE:   112 TIME:   0.020 TIME LEFT:  2.00D  GRAD.:     1.104 HEAT: -280.7037
 CYCLE:   113 TIME:   0.020 TIME LEFT:  2.00D  GRAD.:     0.893 HEAT: -280.7053
 CYCLE:   114 TIME:   0.020 TIME LEFT:  2.00D  GRAD.:     1.030 HEAT: -280.7071
 CYCLE:   115 TIME:   0.020 TIME LEFT:  2.00D  GRAD.:     1.220 HEAT: -280.7101
 CYCLE:   116 TIME:   0.023 TIME LEFT:  2.00D  GRAD.:     1.123 HEAT: -280.7128
 CYCLE:   117 TIME:   0.020 TIME LEFT:  2.00D  GRAD.:     0.957 HEAT: -280.7154
 CYCLE:   118 TIME:   0.020 TIME LEFT:  2.00D  GRAD.:     0.850 HEAT: -280.7168
 CYCLE:   119 TIME:   0.020 TIME LEFT:  2.00D  GRAD.:     1.319 HEAT: -280.7206
 CYCLE:   120 TIME:   0.023 TIME LEFT:  2.00D  GRAD.:     1.158 HEAT: -280.7226
 CYCLE:   121 TIME:   0.020 TIME LEFT:  2.00D  GRAD.:     1.896 HEAT: -280.7312
 CYCLE:   122 TIME:   0.023 TIME LEFT:  2.00D  GRAD.:     1.303 HEAT: -280.7344
 CYCLE:   123 TIME:   0.020 TIME LEFT:  2.00D  GRAD.:     1.092 HEAT: -280.7378
 CYCLE:   124 TIME:   0.023 TIME LEFT:  2.00D  GRAD.:     1.432 HEAT: -280.7420
 CYCLE:   125 TIME:   0.023 TIME LEFT:  2.00D  GRAD.:     1.430 HEAT: -280.7454
 CYCLE:   126 TIME:   0.023 TIME LEFT:  2.00D  GRAD.:     1.098 HEAT: -280.7492
 CYCLE:   127 TIME:   0.020 TIME LEFT:  2.00D  GRAD.:     0.785 HEAT: -280.7514
 CYCLE:   128 TIME:   0.020 TIME LEFT:  2.00D  GRAD.:     0.701 HEAT: -280.7535
 CYCLE:   129 TIME:   0.027 TIME LEFT:  2.00D  GRAD.:     0.656 HEAT: -280.7542
 CYCLE:   130 TIME:   0.023 TIME LEFT:  2.00D  GRAD.:     0.644 HEAT: -280.7555
 CYCLE:   131 TIME:   0.027 TIME LEFT:  2.00D  GRAD.:     0.723 HEAT: -280.7579
 CYCLE:   132 TIME:   0.023 TIME LEFT:  2.00D  GRAD.:     0.974 HEAT: -280.7601
 CYCLE:   133 TIME:   0.020 TIME LEFT:  2.00D  GRAD.:     1.085 HEAT: -280.7623
 CYCLE:   134 TIME:   0.023 TIME LEFT:  2.00D  GRAD.:     1.065 HEAT: -280.7647
 CYCLE:   135 TIME:   0.023 TIME LEFT:  2.00D  GRAD.:     0.731 HEAT: -280.7658
 CYCLE:   136 TIME:   0.020 TIME LEFT:  2.00D  GRAD.:     1.045 HEAT: -280.7675
 CYCLE:   137 TIME:   0.020 TIME LEFT:  2.00D  GRAD.:     0.669 HEAT: -280.7686
 CYCLE:   138 TIME:   0.020 TIME LEFT:  2.00D  GRAD.:     0.604 HEAT: -280.7708
 CYCLE:   139 TIME:   0.023 TIME LEFT:  2.00D  GRAD.:     0.911 HEAT: -280.7735
 CYCLE:   140 TIME:   0.023 TIME LEFT:  2.00D  GRAD.:     0.844 HEAT: -280.7750
 CYCLE:   141 TIME:   0.023 TIME LEFT:  2.00D  GRAD.:     0.566 HEAT: -280.7760
 CYCLE:   142 TIME:   0.023 TIME LEFT:  2.00D  GRAD.:     0.668 HEAT: -280.7765
 CYCLE:   143 TIME:   0.020 TIME LEFT:  2.00D  GRAD.:     0.668 HEAT: -280.7776
 CYCLE:   144 TIME:   0.023 TIME LEFT:  2.00D  GRAD.:     0.603 HEAT: -280.7790
 CYCLE:   145 TIME:   0.020 TIME LEFT:  2.00D  GRAD.:     0.539 HEAT: -280.7806
 CYCLE:   146 TIME:   0.027 TIME LEFT:  2.00D  GRAD.:     0.484 HEAT: -280.7813
 CYCLE:   147 TIME:   0.020 TIME LEFT:  2.00D  GRAD.:     0.439 HEAT: -280.7817
 CYCLE:   148 TIME:   0.023 TIME LEFT:  2.00D  GRAD.:     0.424 HEAT: -280.7820
 CYCLE:   149 TIME:   0.020 TIME LEFT:  2.00D  GRAD.:     0.477 HEAT: -280.7826
 CYCLE:   150 TIME:   0.020 TIME LEFT:  2.00D  GRAD.:     0.627 HEAT: -280.7836
 CYCLE:   151 TIME:   0.027 TIME LEFT:  2.00D  GRAD.:     0.832 HEAT: -280.7849
 CYCLE:   152 TIME:   0.023 TIME LEFT:  2.00D  GRAD.:     0.835 HEAT: -280.7862
 CYCLE:   153 TIME:   0.020 TIME LEFT:  2.00D  GRAD.:     0.777 HEAT: -280.7868
 CYCLE:   154 TIME:   0.027 TIME LEFT:  2.00D  GRAD.:     0.816 HEAT: -280.7880
 CYCLE:   155 TIME:   0.023 TIME LEFT:  2.00D  GRAD.:     0.754 HEAT: -280.7888
 CYCLE:   156 TIME:   0.020 TIME LEFT:  2.00D  GRAD.:     1.310 HEAT: -280.7935
 CYCLE:   157 TIME:   0.020 TIME LEFT:  2.00D  GRAD.:     1.309 HEAT: -280.7969
 CYCLE:   158 TIME:   0.023 TIME LEFT:  2.00D  GRAD.:     4.467 HEAT: -280.7939
 CYCLE:   159 TIME:   0.020 TIME LEFT:  2.00D  GRAD.:     3.484 HEAT: -280.8038
 CYCLE:   160 TIME:   0.027 TIME LEFT:  2.00D  GRAD.:     1.560 HEAT: -280.8081
 CYCLE:   161 TIME:   0.020 TIME LEFT:  2.00D  GRAD.:     0.919 HEAT: -280.8133
 CYCLE:   162 TIME:   0.020 TIME LEFT:  2.00D  GRAD.:     1.123 HEAT: -280.8155
 CYCLE:   163 TIME:   0.031 TIME LEFT:  2.00D  GRAD.:     1.184 HEAT: -280.8173
 CYCLE:   164 TIME:   0.027 TIME LEFT:  2.00D  GRAD.:     0.989 HEAT: -280.8202
 CYCLE:   165 TIME:   0.020 TIME LEFT:  2.00D  GRAD.:     1.333 HEAT: -280.8218
 CYCLE:   166 TIME:   0.023 TIME LEFT:  2.00D  GRAD.:     1.063 HEAT: -280.8233
 CYCLE:   167 TIME:   0.020 TIME LEFT:  2.00D  GRAD.:     0.851 HEAT: -280.8251
 CYCLE:   168 TIME:   0.020 TIME LEFT:  2.00D  GRAD.:     0.960 HEAT: -280.8268
 CYCLE:   169 TIME:   0.020 TIME LEFT:  2.00D  GRAD.:     1.504 HEAT: -280.8304
 CYCLE:   170 TIME:   0.027 TIME LEFT:  2.00D  GRAD.:     1.658 HEAT: -280.8349
 CYCLE:   171 TIME:   0.023 TIME LEFT:  2.00D  GRAD.:     1.968 HEAT: -280.8416
 CYCLE:   172 TIME:   0.020 TIME LEFT:  2.00D  GRAD.:     1.451 HEAT: -280.8447
 CYCLE:   173 TIME:   0.023 TIME LEFT:  2.00D  GRAD.:     1.923 HEAT: -280.8487
 CYCLE:   174 TIME:   0.027 TIME LEFT:  2.00D  GRAD.:     1.139 HEAT: -280.8510
 CYCLE:   175 TIME:   0.020 TIME LEFT:  2.00D  GRAD.:     0.554 HEAT: -280.8523
 CYCLE:   176 TIME:   0.027 TIME LEFT:  2.00D  GRAD.:     0.634 HEAT: -280.8529
 CYCLE:   177 TIME:   0.023 TIME LEFT:  2.00D  GRAD.:     0.387 HEAT: -280.8532
 CYCLE:   178 TIME:   0.023 TIME LEFT:  2.00D  GRAD.:     0.324 HEAT: -280.8534
 CYCLE:   179 TIME:   0.020 TIME LEFT:  2.00D  GRAD.:     0.302 HEAT: -280.8536
 CYCLE:   180 TIME:   0.023 TIME LEFT:  2.00D  GRAD.:     0.317 HEAT: -280.8538
 CYCLE:   181 TIME:   0.023 TIME LEFT:  2.00D  GRAD.:     0.367 HEAT: -280.8539
 CYCLE:   182 TIME:   0.020 TIME LEFT:  2.00D  GRAD.:     0.356 HEAT: -280.8540
 CYCLE:   183 TIME:   0.027 TIME LEFT:  2.00D  GRAD.:     0.316 HEAT: -280.8542
 CYCLE:   184 TIME:   0.020 TIME LEFT:  2.00D  GRAD.:     0.378 HEAT: -280.8545
 CYCLE:   185 TIME:   0.020 TIME LEFT:  2.00D  GRAD.:     0.437 HEAT: -280.8548
 CYCLE:   186 TIME:   0.027 TIME LEFT:  2.00D  GRAD.:     0.627 HEAT: -280.8554
 CYCLE:   187 TIME:   0.020 TIME LEFT:  2.00D  GRAD.:     0.554 HEAT: -280.8557
 CYCLE:   188 TIME:   0.027 TIME LEFT:  2.00D  GRAD.:     0.415 HEAT: -280.8563
 CYCLE:   189 TIME:   0.020 TIME LEFT:  2.00D  GRAD.:     0.298 HEAT: -280.8566
 CYCLE:   190 TIME:   0.023 TIME LEFT:  2.00D  GRAD.:     0.302 HEAT: -280.8568
 CYCLE:   191 TIME:   0.023 TIME LEFT:  2.00D  GRAD.:     0.286 HEAT: -280.8569
 CYCLE:   192 TIME:   0.020 TIME LEFT:  2.00D  GRAD.:     0.313 HEAT: -280.8570
 CYCLE:   193 TIME:   0.023 TIME LEFT:  2.00D  GRAD.:     0.431 HEAT: -280.8574
 CYCLE:   194 TIME:   0.023 TIME LEFT:  2.00D  GRAD.:     0.585 HEAT: -280.8580
 CYCLE:   195 TIME:   0.023 TIME LEFT:  2.00D  GRAD.:     1.049 HEAT: -280.8582
 CYCLE:   196 TIME:   0.023 TIME LEFT:  2.00D  GRAD.:     0.648 HEAT: -280.8592
 CYCLE:   197 TIME:   0.020 TIME LEFT:  2.00D  GRAD.:     0.364 HEAT: -280.8599
 CYCLE:   198 TIME:   0.023 TIME LEFT:  2.00D  GRAD.:     0.344 HEAT: -280.8602
 CYCLE:   199 TIME:   0.020 TIME LEFT:  2.00D  GRAD.:     0.297 HEAT: -280.8604
 CYCLE:   200 TIME:   0.020 TIME LEFT:  2.00D  GRAD.:     0.297 HEAT: -280.8605
 CYCLE:   201 TIME:   0.023 TIME LEFT:  2.00D  GRAD.:     0.500 HEAT: -280.8611
 CYCLE:   202 TIME:   0.023 TIME LEFT:  2.00D  GRAD.:     0.630 HEAT: -280.8616
 CYCLE:   203 TIME:   0.023 TIME LEFT:  2.00D  GRAD.:     1.335 HEAT: -280.8643
 CYCLE:   204 TIME:   0.020 TIME LEFT:  2.00D  GRAD.:     1.226 HEAT: -280.8663
 CYCLE:   205 TIME:   0.027 TIME LEFT:  2.00D  GRAD.:     2.127 HEAT: -280.8678
 CYCLE:   206 TIME:   0.020 TIME LEFT:  2.00D  GRAD.:     0.864 HEAT: -280.8710
 CYCLE:   207 TIME:   0.020 TIME LEFT:  2.00D  GRAD.:     0.879 HEAT: -280.8718
 CYCLE:   208 TIME:   0.023 TIME LEFT:  2.00D  GRAD.:     0.627 HEAT: -280.8727
 CYCLE:   209 TIME:   0.023 TIME LEFT:  2.00D  GRAD.:     0.944 HEAT: -280.8733
 CYCLE:   210 TIME:   0.027 TIME LEFT:  2.00D  GRAD.:    75.054 HEAT: -277.9158
 CYCLE:   211 TIME:   0.023 TIME LEFT:  2.00D  GRAD.:     1.405 HEAT: -280.8734
 CYCLE:   212 TIME:   0.020 TIME LEFT:  2.00D  GRAD.:     1.699 HEAT: -280.8730
 CYCLE:   213 TIME:   0.023 TIME LEFT:  2.00D  GRAD.:     0.434 HEAT: -280.8744
 CYCLE:   214 TIME:   0.023 TIME LEFT:  2.00D  GRAD.:     0.486 HEAT: -280.8746
 CYCLE:   215 TIME:   0.020 TIME LEFT:  2.00D  GRAD.:     0.937 HEAT: -280.8755
 CYCLE:   216 TIME:   0.023 TIME LEFT:  2.00D  GRAD.:     0.624 HEAT: -280.8761
 CYCLE:   217 TIME:   0.027 TIME LEFT:  2.00D  GRAD.:     0.972 HEAT: -280.8772
 CYCLE:   218 TIME:   0.023 TIME LEFT:  2.00D  GRAD.:     0.655 HEAT: -280.8779
 CYCLE:   219 TIME:   0.020 TIME LEFT:  2.00D  GRAD.:     0.376 HEAT: -280.8787
 CYCLE:   220 TIME:   0.027 TIME LEFT:  2.00D  GRAD.:     0.407 HEAT: -280.8797
 CYCLE:   221 TIME:   0.027 TIME LEFT:  2.00D  GRAD.:     0.337 HEAT: -280.8801
 CYCLE:   222 TIME:   0.023 TIME LEFT:  2.00D  GRAD.:     0.241 HEAT: -280.8802
 CYCLE:   223 TIME:   0.020 TIME LEFT:  2.00D  GRAD.:     0.255 HEAT: -280.8803
 CYCLE:   224 TIME:   0.020 TIME LEFT:  2.00D  GRAD.:     0.351 HEAT: -280.8805
 CYCLE:   225 TIME:   0.020 TIME LEFT:  2.00D  GRAD.:     0.454 HEAT: -280.8808
 CYCLE:   226 TIME:   0.023 TIME LEFT:  2.00D  GRAD.:     0.493 HEAT: -280.8811
 CYCLE:   227 TIME:   0.023 TIME LEFT:  2.00D  GRAD.:     0.429 HEAT: -280.8814
 CYCLE:   228 TIME:   0.020 TIME LEFT:  2.00D  GRAD.:     0.234 HEAT: -280.8816
 CYCLE:   229 TIME:   0.023 TIME LEFT:  2.00D  GRAD.:     0.150 HEAT: -280.8817
 CYCLE:   230 TIME:   0.023 TIME LEFT:  2.00D  GRAD.:     0.148 HEAT: -280.8817
 CYCLE:   231 TIME:   0.023 TIME LEFT:  2.00D  GRAD.:     0.140 HEAT: -280.8818
 CYCLE:   232 TIME:   0.027 TIME LEFT:  2.00D  GRAD.:     0.208 HEAT: -280.8818
 CYCLE:   233 TIME:   0.020 TIME LEFT:  2.00D  GRAD.:     0.399 HEAT: -280.8818
 CYCLE:   234 TIME:   0.023 TIME LEFT:  2.00D  GRAD.:     0.325 HEAT: -280.8819
 CYCLE:   235 TIME:   0.020 TIME LEFT:  2.00D  GRAD.:     0.401 HEAT: -280.8825
 CYCLE:   236 TIME:   0.020 TIME LEFT:  2.00D  GRAD.:     0.408 HEAT: -280.8828
 CYCLE:   237 TIME:   0.020 TIME LEFT:  2.00D  GRAD.:     0.406 HEAT: -280.8831
 CYCLE:   238 TIME:   0.027 TIME LEFT:  2.00D  GRAD.:     0.266 HEAT: -280.8834
 CYCLE:   239 TIME:   0.020 TIME LEFT:  2.00D  GRAD.:     0.334 HEAT: -280.8836
 CYCLE:   240 TIME:   0.027 TIME LEFT:  2.00D  GRAD.:     0.170 HEAT: -280.8837
 CYCLE:   241 TIME:   0.020 TIME LEFT:  2.00D  GRAD.:     0.235 HEAT: -280.8836
 CYCLE:   242 TIME:   0.027 TIME LEFT:  2.00D  GRAD.:     0.118 HEAT: -280.8837
 CYCLE:   243 TIME:   0.023 TIME LEFT:  2.00D  GRAD.:     0.122 HEAT: -280.8837
 CYCLE:   244 TIME:   0.023 TIME LEFT:  2.00D  GRAD.:     0.119 HEAT: -280.8837
 CYCLE:   245 TIME:   0.020 TIME LEFT:  2.00D  GRAD.:     0.221 HEAT: -280.8837
 CYCLE:   246 TIME:   0.027 TIME LEFT:  2.00D  GRAD.:     0.205 HEAT: -280.8837
 CYCLE:   247 TIME:   0.027 TIME LEFT:  2.00D  GRAD.:     0.211 HEAT: -280.8840
 CYCLE:   248 TIME:   0.020 TIME LEFT:  2.00D  GRAD.:     0.251 HEAT: -280.8843
 CYCLE:   249 TIME:   0.023 TIME LEFT:  2.00D  GRAD.:     0.284 HEAT: -280.8845
 CYCLE:   250 TIME:   0.020 TIME LEFT:  2.00D  GRAD.:     0.200 HEAT: -280.8847
 CYCLE:   251 TIME:   0.023 TIME LEFT:  2.00D  GRAD.:     0.120 HEAT: -280.8848
 CYCLE:   252 TIME:   0.020 TIME LEFT:  2.00D  GRAD.:     0.134 HEAT: -280.8849
 CYCLE:   253 TIME:   0.023 TIME LEFT:  2.00D  GRAD.:     0.104 HEAT: -280.8849
 CYCLE:   254 TIME:   0.023 TIME LEFT:  2.00D  GRAD.:     0.064 HEAT: -280.8849
 CYCLE:   255 TIME:   0.023 TIME LEFT:  2.00D  GRAD.:     0.054 HEAT: -280.8849
 CYCLE:   256 TIME:   0.023 TIME LEFT:  2.00D  GRAD.:     0.107 HEAT: -280.8849
 CYCLE:   257 TIME:   0.020 TIME LEFT:  2.00D  GRAD.:     0.095 HEAT: -280.8849
 CYCLE:   258 TIME:   0.023 TIME LEFT:  2.00D  GRAD.:     0.147 HEAT: -280.8848
 CYCLE:   259 TIME:   0.023 TIME LEFT:  2.00D  GRAD.:     0.070 HEAT: -280.8849
 CYCLE:   260 TIME:   0.023 TIME LEFT:  2.00D  GRAD.:     0.119 HEAT: -280.8849
 CYCLE:   261 TIME:   0.020 TIME LEFT:  2.00D  GRAD.:     0.064 HEAT: -280.8849
 CYCLE:   262 TIME:   0.023 TIME LEFT:  2.00D  GRAD.:     0.063 HEAT: -280.8849
 CYCLE:   263 TIME:   0.023 TIME LEFT:  2.00D  GRAD.:     0.196 HEAT: -280.8848
 CYCLE:   264 TIME:   0.023 TIME LEFT:  2.00D  GRAD.:     0.121 HEAT: -280.8849
 CYCLE:   265 TIME:   0.023 TIME LEFT:  2.00D  GRAD.:     0.101 HEAT: -280.8849
 CYCLE:   266 TIME:   0.023 TIME LEFT:  2.00D  GRAD.:     0.064 HEAT: -280.8850
 CYCLE:   267 TIME:   0.023 TIME LEFT:  2.00D  GRAD.:     0.151 HEAT: -280.8849
 CYCLE:   268 TIME:   0.020 TIME LEFT:  2.00D  GRAD.:     0.115 HEAT: -280.8850
 CYCLE:   269 TIME:   0.020 TIME LEFT:  2.00D  GRAD.:     0.126 HEAT: -280.8849
 CYCLE:   270 TIME:   0.023 TIME LEFT:  2.00D  GRAD.:     0.078 HEAT: -280.8851
 CYCLE:   271 TIME:   0.023 TIME LEFT:  2.00D  GRAD.:     0.144 HEAT: -280.8851
 CYCLE:   272 TIME:   0.020 TIME LEFT:  2.00D  GRAD.:     0.109 HEAT: -280.8852
 CYCLE:   273 TIME:   0.023 TIME LEFT:  2.00D  GRAD.:     0.273 HEAT: -280.8846
 CYCLE:   274 TIME:   0.020 TIME LEFT:  2.00D  GRAD.:     0.141 HEAT: -280.8855
 CYCLE:   275 TIME:   0.020 TIME LEFT:  2.00D  GRAD.:     0.192 HEAT: -280.8855
 CYCLE:   276 TIME:   0.023 TIME LEFT:  2.00D  GRAD.:     0.088 HEAT: -280.8859
 CYCLE:   277 TIME:   0.020 TIME LEFT:  2.00D  GRAD.:     1.167 HEAT: -280.8830
 CYCLE:   278 TIME:   0.023 TIME LEFT:  2.00D  GRAD.:     0.299 HEAT: -280.8862
 CYCLE:   279 TIME:   0.023 TIME LEFT:  2.00D  GRAD.:     0.150 HEAT: -280.8864
 CYCLE:   280 TIME:   0.016 TIME LEFT:  2.00D  GRAD.:     0.248 HEAT: -280.8864
 CYCLE:   281 TIME:   0.023 TIME LEFT:  2.00D  GRAD.:     0.191 HEAT: -280.8865
 CYCLE:   282 TIME:   0.016 TIME LEFT:  2.00D  GRAD.:     0.113 HEAT: -280.8865
 CYCLE:   283 TIME:   0.023 TIME LEFT:  2.00D  GRAD.:     0.065 HEAT: -280.8865
 CYCLE:   284 TIME:   0.020 TIME LEFT:  2.00D  GRAD.:     0.084 HEAT: -280.8865
 CYCLE:   285 TIME:   0.020 TIME LEFT:  2.00D  GRAD.:     0.079 HEAT: -280.8865
 CYCLE:   286 TIME:   0.023 TIME LEFT:  2.00D  GRAD.:     0.162 HEAT: -280.8863
 CYCLE:   287 TIME:   0.023 TIME LEFT:  2.00D  GRAD.:     0.070 HEAT: -280.8865
 CYCLE:   288 TIME:   0.020 TIME LEFT:  2.00D  GRAD.:     0.088 HEAT: -280.8865
 CYCLE:   289 TIME:   0.023 TIME LEFT:  2.00D  GRAD.:     0.051 HEAT: -280.8865
 CYCLE:   290 TIME:   0.023 TIME LEFT:  2.00D  GRAD.:     0.048 HEAT: -280.8865

     GRADIENT =  0.04783 IS LESS THAN CUTOFF =  0.05000



 -------------------------------------------------------------------------------
 PRECISE LARGE CHARGE=1 SINGLET  PM7 LET DDMIN=0.0
 Na(+) + 6H2O



     GEOMETRY OPTIMISED USING EIGENVECTOR FOLLOWING (EF).     
     SCF FIELD WAS ACHIEVED                                   


                              PM7 CALCULATION
                                                       MOPAC v22.1.0 Windows
                                                       Mon Jan 29 12:06:53 2024




          FINAL HEAT OF FORMATION =       -280.88653 KCAL/MOL =   -1175.22925 KJ/MOL


          COSMO AREA              =        208.79 SQUARE ANGSTROMS
          COSMO VOLUME            =        195.50 CUBIC ANGSTROMS

          GRADIENT NORM           =          0.04783          =       0.01097 PER ATOM
          IONIZATION POTENTIAL    =         15.513625 EV
          HOMO LUMO ENERGIES (EV) =        -15.514 -0.820
          NO. OF FILLED LEVELS    =         24
          MOLECULAR WEIGHT        =        131.0810         POINT GROUP:  C1  

          MOLECULAR DIMENSIONS (Angstroms)

            Atom       Atom       Distance
            H    11    H     8    10.07322
            H     7    H    14     5.75442
            H    17    H    16     1.88742


          SCF CALCULATIONS        =        291
 
          WALL-CLOCK TIME         =      6.727 SECONDS
          COMPUTATION TIME        =     13.078 SECONDS




   ATOM   CHEMICAL          X               Y               Z
  NUMBER   SYMBOL      (ANGSTROMS)     (ANGSTROMS)     (ANGSTROMS)
 
     1      Na         -1.48809147  *   1.05593361  *   2.95062853  *
     2       H         -2.32819112  *  -1.78326220  *   1.89643005  *
     3       O         -2.56343866  *  -0.85448478  *   1.75820065  *
     4       H         -3.17655326  *  -0.83393642  *   1.02596597  *
     5       H          0.12640126  *  -1.16098869  *   4.14240422  *
     6       O          0.10366761  *  -0.18179907  *   4.25740295  *
     7       H          0.94285863  *   0.05596693  *   4.64618764  *
     8       H          0.13759054  *  -3.47629491  *   4.51724831  *
     9       O          0.09780062  *  -2.82025449  *   3.82359559  *
    10       H         -0.64145803  *  -3.04817869  *   3.25670965  *
    11       H         -4.38665842  *   4.77611932  *   0.92578910  *
    12       O         -3.53537349  *   4.38342246  *   0.72062018  *
    13       H         -3.18993883  *   4.86615082  *  -0.03349863  *
    14       H         -2.61390237  *  -4.01586081  *   2.45543266  *
    15       O         -1.90977930  *  -3.43289090  *   2.14171682  *
    16       H         -1.50937557  *  -3.88679276  *   1.38625996  *
    17       H         -1.61329662  *   4.15765509  *   3.12319112  *
    18       O         -1.93016215  *   3.40394032  *   2.62956200  *
    19       H         -2.51661562  *   3.76167211  *   1.93188569  *

                             CARTESIAN COORDINATES

   1   Na       -1.488091470     1.055933606     2.950628532
   2    H       -2.328191119    -1.783262196     1.896430052
   3    O       -2.563438660    -0.854484781     1.758200649
   4    H       -3.176553265    -0.833936422     1.025965965
   5    H        0.126401259    -1.160988686     4.142404217
   6    O        0.103667607    -0.181799071     4.257402953
   7    H        0.942858635     0.055966928     4.646187643
   8    H        0.137590543    -3.476294912     4.517248311
   9    O        0.097800623    -2.820254494     3.823595594
  10    H       -0.641458031    -3.048178694     3.256709651
  11    H       -4.386658421     4.776119321     0.925789099
  12    O       -3.535373488     4.383422455     0.720620184
  13    H       -3.189938834     4.866150822    -0.033498633
  14    H       -2.613902368    -4.015860812     2.455432656
  15    O       -1.909779297    -3.432890898     2.141716816
  16    H       -1.509375569    -3.886792759     1.386259955
  17    H       -1.613296622     4.157655087     3.123191116
  18    O       -1.930162154     3.403940322     2.629562002
  19    H       -2.516615618     3.761672111     1.931885685


           Empirical Formula: H12 O6 Na  =    19 atoms



      MOLECULAR POINT GROUP   :   C1  


                  EIGENVALUES  
 -33.89764 -33.10059 -32.84204 -32.75932 -32.49367 -32.15836 -22.10295 -21.79033
 -21.55749 -21.37737 -21.35119 -21.14580 -18.96994 -18.77763 -18.44512 -18.25374
 -17.59461 -17.40091 -16.44674 -16.16915 -16.10488 -15.91116 -15.81039 -15.51363
  -0.81968  -0.32367  -0.06640   0.16636   0.60032   1.15528   1.52420   2.03886
   2.20253   2.64415   3.01200   3.06636   3.14831   3.36712   3.52004   3.56793


              NET ATOMIC CHARGES AND DIPOLE CONTRIBUTIONS

  ATOM NO.   TYPE          CHARGE      No. of ELECS.   s-Pop       p-Pop       
    1         Na           0.853145        0.1469     0.02084     0.12602
    2          H           0.397148        0.6029     0.60285
    3          O          -0.757648        6.7576     1.78149     4.97616
    4          H           0.377094        0.6229     0.62291
    5          H           0.414616        0.5854     0.58538
    6          O          -0.773241        6.7732     1.78066     4.99258
    7          H           0.384633        0.6154     0.61537
    8          H           0.362473        0.6375     0.63753
    9          O          -0.721726        6.7217     1.79584     4.92589
   10          H           0.369765        0.6302     0.63023
   11          H           0.366552        0.6334     0.63345
   12          O          -0.708882        6.7089     1.79717     4.91171
   13          H           0.366626        0.6334     0.63337
   14          H           0.372879        0.6271     0.62712
   15          O          -0.706793        6.7068     1.80309     4.90370
   16          H           0.374829        0.6252     0.62517
   17          H           0.384168        0.6158     0.61583
   18          O          -0.771711        6.7717     1.77680     4.99491
   19          H           0.416072        0.5839     0.58393
 DIPOLE           X         Y         Z       TOTAL
 POINT-CHG.    -1.935     0.231    -1.354     2.373
 HYBRID        -0.352    -0.348    -0.342     0.602
 SUM           -2.288    -0.117    -1.697     2.850


          ATOMIC ORBITAL ELECTRON POPULATIONS

     Atom    s        px        py        pz   
    1 Na   0.02084   0.03228   0.06831   0.02543
    2  H   0.60285
    3  O   1.78149   1.76402   1.52971   1.68243
    4  H   0.62291
    5  H   0.58538
    6  O   1.78066   1.57852   1.51329   1.90077
    7  H   0.61537
    8  H   0.63753
    9  O   1.79584   1.68175   1.66287   1.58127
   10  H   0.63023
   11  H   0.63345
   12  O   1.79717   1.53366   1.72995   1.64810
   13  H   0.63337
   14  H   0.62712
   15  O   1.80309   1.64660   1.62161   1.63549
   16  H   0.62517
   17  H   0.61583
   18  O   1.77680   1.78813   1.55362   1.65316
   19  H   0.58393

 **********************
 *                    *
 * JOB ENDED NORMALLY *
 *                    *
 **********************



 TOTAL JOB TIME:             6.73 SECONDS

 == MOPAC DONE ==
