 *******************************************************************************
 **                                                                           **
 **                              MOPAC v22.1.0                                **
 **                                                                           **
 *******************************************************************************
 **          Digital Object Identifier (DOI): 10.5281/zenodo.6511958          **
 **    Visit the DOI location for information on how to cite this program.    **
 *******************************************************************************

                              PM7 CALCULATION RESULTS

 *******************************************************************************
 *  CALCULATION DONE:                                Mon Jan 29 12:03:20 2024  *
 *  PM7        - The PM7 Hamiltonian to be used
 *  SINGLET    - SPIN STATE DEFINED AS A SINGLET
 *
 *
 *
 *                 CHARGE ON SYSTEM = +1
 *
 *
 *
 *  PRECISE    - TIGHTER CRITERIA TO BE USED
 *  T=         - A TIME OF 172800.0 SECONDS REQUESTED
 *  DUMP=N     - RESTART FILE WRITTEN EVERY 7200.0 SECONDS REQUESTED
 *  LARGE      - EXPANDED OUTPUT TO BE PRINTED
 *******************************************************************************
 PRECISE LARGE CHARGE=1 SINGLET PM7
 Na(+) + 7H2O

   ATOM   CHEMICAL          X               Y               Z
  NUMBER   SYMBOL      (ANGSTROMS)     (ANGSTROMS)     (ANGSTROMS)
 
     1      Na         -1.26920000  *   0.03969000  *   2.38633000  *
     2       H         -3.32504000  *  -1.54779000  *   1.08943000  *
     3       O         -3.56890000  *  -0.74665000  *   0.56094000  *
     4       H         -4.48135000  *  -0.93783000  *   0.22714000  *
     5       H          0.12337000  *   0.55104000  *   4.84445000  *
     6       O          0.47573000  *   1.42740000  *   4.54703000  *
     7       H         -0.31572000  *   1.95087000  *   4.30258000  *
     8       H         -0.68405000  *  -3.33083000  *   4.12594000  *
     9       O         -0.22962000  *  -2.62563000  *   3.59972000  *
    10       H         -0.95365000  *  -1.99922000  *   3.34696000  *
    11       H         -3.37963000  *   2.49112000  *   1.92519000  *
    12       O         -2.92523000  *   3.19632000  *   1.39899000  *
    13       H         -3.64933000  *   3.82272000  *   1.14629000  *
    14       H         -2.61168000  *  -3.17840000  *   2.64308000  *
    15       O         -1.77734000  *  -3.10218000  *   2.11513000  *
    16       H         -2.03772000  *  -2.58278000  *   1.31328000  *
    17       H          0.12342000  *  -1.09890000  *   4.90027000  *
    18       O          0.75176000  *  -1.59932000  *   5.46140000  *
    19       H          0.28815000  *  -2.44824000  *   5.67380000  *
    20       H         -1.65164000  *   2.30702000  *   4.23842000  *
    21       O         -1.44600000  *   3.23967000  *   3.97653000  *
    22       H         -2.31445000  *   3.69201000  *   3.94066000  *
 


          CARTESIAN COORDINATES 

    NO.       ATOM           X           Y           Z

     1        Na         -1.2692      0.0397      2.3863
     2         H         -3.3250     -1.5478      1.0894
     3         O         -3.5689     -0.7467      0.5609
     4         H         -4.4813     -0.9378      0.2271
     5         H          0.1234      0.5510      4.8445
     6         O          0.4757      1.4274      4.5470
     7         H         -0.3157      1.9509      4.3026
     8         H         -0.6841     -3.3308      4.1259
     9         O         -0.2296     -2.6256      3.5997
    10         H         -0.9537     -1.9992      3.3470
    11         H         -3.3796      2.4911      1.9252
    12         O         -2.9252      3.1963      1.3990
    13         H         -3.6493      3.8227      1.1463
    14         H         -2.6117     -3.1784      2.6431
    15         O         -1.7773     -3.1022      2.1151
    16         H         -2.0377     -2.5828      1.3133
    17         H          0.1234     -1.0989      4.9003
    18         O          0.7518     -1.5993      5.4614
    19         H          0.2882     -2.4482      5.6738
    20         H         -1.6516      2.3070      4.2384
    21         O         -1.4460      3.2397      3.9765
    22         H         -2.3144      3.6920      3.9407

 General Reference for PM7:
 "Optimization of Parameters for Semiempirical Methods VI: More Modifications to the 
 NDDO Approximations and Re-optimization of Parameters", J. J. P. Stewart, J. Mol. Mod., 1:32, 19 (2013)
 https://link.springer.com/article/10.1007/s00894-012-1667-x

           Empirical Formula: H14 O7 Na  =    22 atoms



      MOLECULAR POINT GROUP   :   C1  


 SINGLET STATE CALCULATION


      RHF CALCULATION, NO. OF DOUBLY OCCUPIED LEVELS = 28


          Geometry optimization using EF

          DIAGONAL MATRIX USED AS START HESSIAN

 CYCLE:     1 TIME:   0.086 TIME LEFT:  2.00D  GRAD.:   118.947 HEAT: -205.4069
 CYCLE:     2 TIME:   0.062 TIME LEFT:  2.00D  GRAD.:    99.234 HEAT: -216.5766
 CYCLE:     3 TIME:   0.039 TIME LEFT:  2.00D  GRAD.:   115.532 HEAT: -229.4428
 CYCLE:     4 TIME:   0.035 TIME LEFT:  2.00D  GRAD.:   147.288 HEAT: -247.9706
 CYCLE:     5 TIME:   0.027 TIME LEFT:  2.00D  GRAD.:   134.726 HEAT: -262.6412
 CYCLE:     6 TIME:   0.027 TIME LEFT:  2.00D  GRAD.:   111.358 HEAT: -278.7942
 CYCLE:     7 TIME:   0.039 TIME LEFT:  2.00D  GRAD.:   104.678 HEAT: -288.2282
 CYCLE:     8 TIME:   0.027 TIME LEFT:  2.00D  GRAD.:   143.196 HEAT: -289.1766
 CYCLE:     9 TIME:   0.035 TIME LEFT:  2.00D  GRAD.:   118.791 HEAT: -294.9249
 CYCLE:    10 TIME:   0.027 TIME LEFT:  2.00D  GRAD.:    97.712 HEAT: -299.0772
 CYCLE:    11 TIME:   0.031 TIME LEFT:  2.00D  GRAD.:    92.047 HEAT: -301.5889
 CYCLE:    12 TIME:   0.035 TIME LEFT:  2.00D  GRAD.:    75.601 HEAT: -304.3696
 CYCLE:    13 TIME:   0.035 TIME LEFT:  2.00D  GRAD.:    79.990 HEAT: -306.0768
 CYCLE:    14 TIME:   0.027 TIME LEFT:  2.00D  GRAD.:    54.266 HEAT: -308.8594
 CYCLE:    15 TIME:   0.035 TIME LEFT:  2.00D  GRAD.:    38.050 HEAT: -311.0013
 CYCLE:    16 TIME:   0.031 TIME LEFT:  2.00D  GRAD.:    37.633 HEAT: -312.5860
 CYCLE:    17 TIME:   0.027 TIME LEFT:  2.00D  GRAD.:    53.027 HEAT: -314.4572
 CYCLE:    18 TIME:   0.027 TIME LEFT:  2.00D  GRAD.:    51.822 HEAT: -316.6825
 CYCLE:    19 TIME:   0.031 TIME LEFT:  2.00D  GRAD.:    52.314 HEAT: -318.3270
 CYCLE:    20 TIME:   0.027 TIME LEFT:  2.00D  GRAD.:    56.534 HEAT: -319.4087
 CYCLE:    21 TIME:   0.035 TIME LEFT:  2.00D  GRAD.:    41.838 HEAT: -320.8498
 CYCLE:    22 TIME:   0.027 TIME LEFT:  2.00D  GRAD.:    37.167 HEAT: -322.0127
 CYCLE:    23 TIME:   0.027 TIME LEFT:  2.00D  GRAD.:    31.949 HEAT: -323.4145
 CYCLE:    24 TIME:   0.027 TIME LEFT:  2.00D  GRAD.:    37.212 HEAT: -323.9422
 CYCLE:    25 TIME:   0.027 TIME LEFT:  2.00D  GRAD.:    48.219 HEAT: -325.2257
 CYCLE:    26 TIME:   0.062 TIME LEFT:  2.00D  GRAD.:    73.417 HEAT: -325.6566
 CYCLE:    27 TIME:   0.035 TIME LEFT:  2.00D  GRAD.:    39.790 HEAT: -327.9819
 CYCLE:    28 TIME:   0.039 TIME LEFT:  2.00D  GRAD.:    25.138 HEAT: -328.7707
 CYCLE:    29 TIME:   0.035 TIME LEFT:  2.00D  GRAD.:    23.354 HEAT: -329.2197
 CYCLE:    30 TIME:   0.039 TIME LEFT:  2.00D  GRAD.:    24.811 HEAT: -329.7985
 CYCLE:    31 TIME:   0.031 TIME LEFT:  2.00D  GRAD.:    29.550 HEAT: -330.5351
 CYCLE:    32 TIME:   0.031 TIME LEFT:  2.00D  GRAD.:    33.648 HEAT: -331.9786
 CYCLE:    33 TIME:   0.031 TIME LEFT:  2.00D  GRAD.:    25.071 HEAT: -333.2035
 CYCLE:    34 TIME:   0.031 TIME LEFT:  2.00D  GRAD.:    32.766 HEAT: -334.0688
 CYCLE:    35 TIME:   0.031 TIME LEFT:  2.00D  GRAD.:    18.988 HEAT: -334.7488
 CYCLE:    36 TIME:   0.027 TIME LEFT:  2.00D  GRAD.:    34.586 HEAT: -334.9265
 CYCLE:    37 TIME:   0.027 TIME LEFT:  2.00D  GRAD.:    21.249 HEAT: -335.6342
 CYCLE:    38 TIME:   0.027 TIME LEFT:  2.00D  GRAD.:    24.217 HEAT: -336.5697
 CYCLE:    39 TIME:   0.055 TIME LEFT:  2.00D  GRAD.:    49.804 HEAT: -337.2006
 CYCLE:    40 TIME:   0.035 TIME LEFT:  2.00D  GRAD.:    28.260 HEAT: -338.0253
 CYCLE:    41 TIME:   0.031 TIME LEFT:  2.00D  GRAD.:    15.233 HEAT: -338.7412
 CYCLE:    42 TIME:   0.031 TIME LEFT:  2.00D  GRAD.:    13.236 HEAT: -339.1542
 CYCLE:    43 TIME:   0.062 TIME LEFT:  2.00D  GRAD.:    11.480 HEAT: -339.3920
 CYCLE:    44 TIME:   0.031 TIME LEFT:  2.00D  GRAD.:     8.867 HEAT: -339.7309
 CYCLE:    45 TIME:   0.051 TIME LEFT:  2.00D  GRAD.:     7.471 HEAT: -339.9222
 CYCLE:    46 TIME:   0.090 TIME LEFT:  2.00D  GRAD.:     6.697 HEAT: -339.9941
 CYCLE:    47 TIME:   0.059 TIME LEFT:  2.00D  GRAD.:     6.038 HEAT: -340.0964
 CYCLE:    48 TIME:   0.109 TIME LEFT:  2.00D  GRAD.:     5.890 HEAT: -340.1226
 CYCLE:    49 TIME:   0.113 TIME LEFT:  2.00D  GRAD.:     5.860 HEAT: -340.1295
 CYCLE:    50 TIME:   0.062 TIME LEFT:  2.00D  GRAD.:     5.845 HEAT: -340.1331
 CYCLE:    51 TIME:   0.027 TIME LEFT:  2.00D  GRAD.:     7.071 HEAT: -339.6484
 CYCLE:    52 TIME:   0.031 TIME LEFT:  2.00D  GRAD.:     7.060 HEAT: -339.6491
 CYCLE:    53 TIME:   0.031 TIME LEFT:  2.00D  GRAD.:     7.040 HEAT: -339.6512
 CYCLE:    54 TIME:   0.027 TIME LEFT:  2.00D  GRAD.:     6.998 HEAT: -339.6556
 CYCLE:    55 TIME:   0.027 TIME LEFT:  2.00D  GRAD.:     6.921 HEAT: -339.6650
 CYCLE:    56 TIME:   0.031 TIME LEFT:  2.00D  GRAD.:     6.853 HEAT: -339.6747
 CYCLE:    57 TIME:   0.027 TIME LEFT:  2.00D  GRAD.:     6.792 HEAT: -339.6850
 CYCLE:    58 TIME:   0.027 TIME LEFT:  2.00D  GRAD.:     6.722 HEAT: -339.6958
 CYCLE:    59 TIME:   0.027 TIME LEFT:  2.00D  GRAD.:     6.647 HEAT: -339.7071
 CYCLE:    60 TIME:   0.027 TIME LEFT:  2.00D  GRAD.:     6.558 HEAT: -339.7239
 CYCLE:    61 TIME:   0.027 TIME LEFT:  2.00D  GRAD.:     6.450 HEAT: -339.7487
 CYCLE:    62 TIME:   0.027 TIME LEFT:  2.00D  GRAD.:     6.316 HEAT: -339.7852
 CYCLE:    63 TIME:   0.031 TIME LEFT:  2.00D  GRAD.:     6.152 HEAT: -339.8386
 CYCLE:    64 TIME:   0.035 TIME LEFT:  2.00D  GRAD.:     5.946 HEAT: -339.9165
 CYCLE:    65 TIME:   0.027 TIME LEFT:  2.00D  GRAD.:     5.698 HEAT: -340.0290
 CYCLE:    66 TIME:   0.051 TIME LEFT:  2.00D  GRAD.:     5.420 HEAT: -340.1897
 CYCLE:    67 TIME:   0.039 TIME LEFT:  2.00D  GRAD.:     7.112 HEAT: -340.4064
 CYCLE:    68 TIME:   0.035 TIME LEFT:  2.00D  GRAD.:     7.055 HEAT: -340.4071
 CYCLE:    69 TIME:   0.027 TIME LEFT:  2.00D  GRAD.:     6.898 HEAT: -340.4092
 CYCLE:    70 TIME:   0.031 TIME LEFT:  2.00D  GRAD.:     6.584 HEAT: -340.4134
 CYCLE:    71 TIME:   0.027 TIME LEFT:  2.00D  GRAD.:     5.932 HEAT: -340.4218
 CYCLE:    72 TIME:   0.023 TIME LEFT:  2.00D  GRAD.:     5.421 HEAT: -340.4298
 CYCLE:    73 TIME:   0.027 TIME LEFT:  2.00D  GRAD.:     5.166 HEAT: -340.4378
 CYCLE:    74 TIME:   0.027 TIME LEFT:  2.00D  GRAD.:     5.061 HEAT: -340.4459
 CYCLE:    75 TIME:   0.027 TIME LEFT:  2.00D  GRAD.:     5.021 HEAT: -340.4545
 CYCLE:    76 TIME:   0.027 TIME LEFT:  2.00D  GRAD.:     4.995 HEAT: -340.4672
 CYCLE:    77 TIME:   0.031 TIME LEFT:  2.00D  GRAD.:     4.971 HEAT: -340.4862
 CYCLE:    78 TIME:   0.031 TIME LEFT:  2.00D  GRAD.:     4.934 HEAT: -340.5145
 CYCLE:    79 TIME:   0.027 TIME LEFT:  2.00D  GRAD.:     4.883 HEAT: -340.5566
 CYCLE:    80 TIME:   0.027 TIME LEFT:  2.00D  GRAD.:     4.808 HEAT: -340.6189
 CYCLE:    81 TIME:   0.031 TIME LEFT:  2.00D  GRAD.:     4.699 HEAT: -340.7106
 CYCLE:    82 TIME:   0.027 TIME LEFT:  2.00D  GRAD.:     4.918 HEAT: -340.8426
 CYCLE:    83 TIME:   0.027 TIME LEFT:  2.00D  GRAD.:     4.894 HEAT: -340.8430
 CYCLE:    84 TIME:   0.098 TIME LEFT:  2.00D  GRAD.:     4.673 HEAT: -341.0069
 CYCLE:    85 TIME:   0.082 TIME LEFT:  2.00D  GRAD.:     4.365 HEAT: -341.0451
 CYCLE:    86 TIME:   0.090 TIME LEFT:  2.00D  GRAD.:     4.251 HEAT: -341.0732
 CYCLE:    87 TIME:   0.172 TIME LEFT:  2.00D  GRAD.:     4.250 HEAT: -341.0751
 CYCLE:    88 TIME:   0.027 TIME LEFT:  2.00D  GRAD.:    13.341 HEAT: -341.4360
 CYCLE:    89 TIME:   0.031 TIME LEFT:  2.00D  GRAD.:    12.127 HEAT: -341.8254
 CYCLE:    90 TIME:   0.031 TIME LEFT:  2.00D  GRAD.:    30.303 HEAT: -342.2420
 CYCLE:    91 TIME:   0.027 TIME LEFT:  2.00D  GRAD.:    11.492 HEAT: -342.3842
 CYCLE:    92 TIME:   0.031 TIME LEFT:  2.00D  GRAD.:     9.030 HEAT: -342.5263
 CYCLE:    93 TIME:   0.031 TIME LEFT:  2.00D  GRAD.:     8.878 HEAT: -342.6932
 CYCLE:    94 TIME:   0.055 TIME LEFT:  2.00D  GRAD.:    11.284 HEAT: -342.8197
 CYCLE:    95 TIME:   0.031 TIME LEFT:  2.00D  GRAD.:     8.779 HEAT: -342.9915
 CYCLE:    96 TIME:   0.027 TIME LEFT:  2.00D  GRAD.:     8.424 HEAT: -343.1138
 CYCLE:    97 TIME:   0.027 TIME LEFT:  2.00D  GRAD.:     7.719 HEAT: -343.3115
 CYCLE:    98 TIME:   0.027 TIME LEFT:  2.00D  GRAD.:     9.793 HEAT: -343.4669
 CYCLE:    99 TIME:   0.027 TIME LEFT:  2.00D  GRAD.:     9.961 HEAT: -343.6133
 CYCLE:   100 TIME:   0.031 TIME LEFT:  2.00D  GRAD.:    10.762 HEAT: -343.8142
 CYCLE:   101 TIME:   0.027 TIME LEFT:  2.00D  GRAD.:     9.973 HEAT: -343.9132
 CYCLE:   102 TIME:   0.031 TIME LEFT:  2.00D  GRAD.:     6.961 HEAT: -344.0204
 CYCLE:   103 TIME:   0.031 TIME LEFT:  2.00D  GRAD.:     7.506 HEAT: -344.1597
 CYCLE:   104 TIME:   0.027 TIME LEFT:  2.00D  GRAD.:     8.705 HEAT: -344.2906
 CYCLE:   105 TIME:   0.035 TIME LEFT:  2.00D  GRAD.:     8.233 HEAT: -344.4686
 CYCLE:   106 TIME:   0.027 TIME LEFT:  2.00D  GRAD.:     6.514 HEAT: -344.5514
 CYCLE:   107 TIME:   0.031 TIME LEFT:  2.00D  GRAD.:     6.073 HEAT: -344.6349
 CYCLE:   108 TIME:   0.031 TIME LEFT:  2.00D  GRAD.:     5.779 HEAT: -344.6919
 CYCLE:   109 TIME:   0.031 TIME LEFT:  2.00D  GRAD.:     5.891 HEAT: -344.7747
 CYCLE:   110 TIME:   0.027 TIME LEFT:  2.00D  GRAD.:     6.821 HEAT: -344.8568
 CYCLE:   111 TIME:   0.031 TIME LEFT:  2.00D  GRAD.:     7.090 HEAT: -344.9217
 CYCLE:   112 TIME:   0.031 TIME LEFT:  2.00D  GRAD.:     7.076 HEAT: -345.0318
 CYCLE:   113 TIME:   0.027 TIME LEFT:  2.00D  GRAD.:     5.050 HEAT: -345.0851
 CYCLE:   114 TIME:   0.031 TIME LEFT:  2.00D  GRAD.:     5.122 HEAT: -345.1598
 CYCLE:   115 TIME:   0.031 TIME LEFT:  2.00D  GRAD.:     4.822 HEAT: -345.1968
 CYCLE:   116 TIME:   0.027 TIME LEFT:  2.00D  GRAD.:     5.530 HEAT: -345.2627
 CYCLE:   117 TIME:   0.027 TIME LEFT:  2.00D  GRAD.:     5.835 HEAT: -345.3290
 CYCLE:   118 TIME:   0.031 TIME LEFT:  2.00D  GRAD.:     7.189 HEAT: -345.3860
 CYCLE:   119 TIME:   0.031 TIME LEFT:  2.00D  GRAD.:     5.037 HEAT: -345.4494
 CYCLE:   120 TIME:   0.031 TIME LEFT:  2.00D  GRAD.:     4.135 HEAT: -345.4870
 CYCLE:   121 TIME:   0.035 TIME LEFT:  2.00D  GRAD.:     3.592 HEAT: -345.5139
 CYCLE:   122 TIME:   0.035 TIME LEFT:  2.00D  GRAD.:     3.784 HEAT: -345.5482
 CYCLE:   123 TIME:   0.031 TIME LEFT:  2.00D  GRAD.:     3.303 HEAT: -345.5749
 CYCLE:   124 TIME:   0.031 TIME LEFT:  2.00D  GRAD.:     2.462 HEAT: -345.6005
 CYCLE:   125 TIME:   0.031 TIME LEFT:  2.00D  GRAD.:     2.500 HEAT: -345.6189
 CYCLE:   126 TIME:   0.031 TIME LEFT:  2.00D  GRAD.:     3.385 HEAT: -345.6411
 CYCLE:   127 TIME:   0.027 TIME LEFT:  2.00D  GRAD.:     3.801 HEAT: -345.6691
 CYCLE:   128 TIME:   0.027 TIME LEFT:  2.00D  GRAD.:     6.264 HEAT: -345.7009
 CYCLE:   129 TIME:   0.027 TIME LEFT:  2.00D  GRAD.:     2.942 HEAT: -345.7260
 CYCLE:   130 TIME:   0.035 TIME LEFT:  2.00D  GRAD.:     2.582 HEAT: -345.7481
 CYCLE:   131 TIME:   0.031 TIME LEFT:  2.00D  GRAD.:     3.916 HEAT: -345.7657
 CYCLE:   132 TIME:   0.031 TIME LEFT:  2.00D  GRAD.:     3.336 HEAT: -345.7861
 CYCLE:   133 TIME:   0.098 TIME LEFT:  2.00D  GRAD.:     5.339 HEAT: -345.8167
 CYCLE:   134 TIME:   0.031 TIME LEFT:  2.00D  GRAD.:     3.635 HEAT: -345.8439
 CYCLE:   135 TIME:   0.035 TIME LEFT:  2.00D  GRAD.:     3.410 HEAT: -345.8758
 CYCLE:   136 TIME:   0.031 TIME LEFT:  2.00D  GRAD.:     4.670 HEAT: -345.9190
 CYCLE:   137 TIME:   0.031 TIME LEFT:  2.00D  GRAD.:     3.690 HEAT: -345.9407
 CYCLE:   138 TIME:   0.031 TIME LEFT:  2.00D  GRAD.:     2.897 HEAT: -345.9664
 CYCLE:   139 TIME:   0.031 TIME LEFT:  2.00D  GRAD.:     4.466 HEAT: -345.9853
 CYCLE:   140 TIME:   0.031 TIME LEFT:  2.00D  GRAD.:     3.293 HEAT: -346.0034
 CYCLE:   141 TIME:   0.031 TIME LEFT:  2.00D  GRAD.:     2.459 HEAT: -346.0232
 CYCLE:   142 TIME:   0.027 TIME LEFT:  2.00D  GRAD.:     2.203 HEAT: -346.0384
 CYCLE:   143 TIME:   0.031 TIME LEFT:  2.00D  GRAD.:     2.398 HEAT: -346.0541
 CYCLE:   144 TIME:   0.031 TIME LEFT:  2.00D  GRAD.:     2.688 HEAT: -346.0640
 CYCLE:   145 TIME:   0.027 TIME LEFT:  2.00D  GRAD.:     2.217 HEAT: -346.0730
 CYCLE:   146 TIME:   0.027 TIME LEFT:  2.00D  GRAD.:     2.145 HEAT: -346.0800
 CYCLE:   147 TIME:   0.027 TIME LEFT:  2.00D  GRAD.:     2.404 HEAT: -346.0901
 CYCLE:   148 TIME:   0.031 TIME LEFT:  2.00D  GRAD.:     2.219 HEAT: -346.0982
 CYCLE:   149 TIME:   0.031 TIME LEFT:  2.00D  GRAD.:     2.049 HEAT: -346.1111
 CYCLE:   150 TIME:   0.027 TIME LEFT:  2.00D  GRAD.:     1.779 HEAT: -346.1224
 CYCLE:   151 TIME:   0.031 TIME LEFT:  2.00D  GRAD.:     1.656 HEAT: -346.1294
 CYCLE:   152 TIME:   0.035 TIME LEFT:  2.00D  GRAD.:     1.817 HEAT: -346.1370
 CYCLE:   153 TIME:   0.027 TIME LEFT:  2.00D  GRAD.:     1.695 HEAT: -346.1436
 CYCLE:   154 TIME:   0.035 TIME LEFT:  2.00D  GRAD.:     1.935 HEAT: -346.1492
 CYCLE:   155 TIME:   0.027 TIME LEFT:  2.00D  GRAD.:     1.714 HEAT: -346.1543
 CYCLE:   156 TIME:   0.027 TIME LEFT:  2.00D  GRAD.:     1.772 HEAT: -346.1610
 CYCLE:   157 TIME:   0.031 TIME LEFT:  2.00D  GRAD.:     2.209 HEAT: -346.1670
 CYCLE:   158 TIME:   0.031 TIME LEFT:  2.00D  GRAD.:     2.547 HEAT: -346.1769
 CYCLE:   159 TIME:   0.031 TIME LEFT:  2.00D  GRAD.:     2.677 HEAT: -346.1886
 CYCLE:   160 TIME:   0.031 TIME LEFT:  2.00D  GRAD.:     3.516 HEAT: -346.2023
 CYCLE:   161 TIME:   0.035 TIME LEFT:  2.00D  GRAD.:     2.214 HEAT: -346.2137
 CYCLE:   162 TIME:   0.031 TIME LEFT:  2.00D  GRAD.:     2.270 HEAT: -346.2267
 CYCLE:   163 TIME:   0.035 TIME LEFT:  2.00D  GRAD.:     2.801 HEAT: -346.2378
 CYCLE:   164 TIME:   0.031 TIME LEFT:  2.00D  GRAD.:     3.096 HEAT: -346.2466
 CYCLE:   165 TIME:   0.027 TIME LEFT:  2.00D  GRAD.:     2.229 HEAT: -346.2566
 CYCLE:   166 TIME:   0.027 TIME LEFT:  2.00D  GRAD.:     1.743 HEAT: -346.2679
 CYCLE:   167 TIME:   0.027 TIME LEFT:  2.00D  GRAD.:     2.175 HEAT: -346.2755
 CYCLE:   168 TIME:   0.027 TIME LEFT:  2.00D  GRAD.:     2.528 HEAT: -346.2895
 CYCLE:   169 TIME:   0.027 TIME LEFT:  2.00D  GRAD.:     3.381 HEAT: -346.3065
 CYCLE:   170 TIME:   0.035 TIME LEFT:  2.00D  GRAD.:     3.666 HEAT: -346.3189
 CYCLE:   171 TIME:   0.035 TIME LEFT:  2.00D  GRAD.:     3.432 HEAT: -346.3348
 CYCLE:   172 TIME:   0.031 TIME LEFT:  2.00D  GRAD.:     2.971 HEAT: -346.3465
 CYCLE:   173 TIME:   0.035 TIME LEFT:  2.00D  GRAD.:     2.560 HEAT: -346.3626
 CYCLE:   174 TIME:   0.031 TIME LEFT:  2.00D  GRAD.:     2.833 HEAT: -346.3774
 CYCLE:   175 TIME:   0.031 TIME LEFT:  2.00D  GRAD.:     3.822 HEAT: -346.3988
 CYCLE:   176 TIME:   0.031 TIME LEFT:  2.00D  GRAD.:     3.662 HEAT: -346.4219
 CYCLE:   177 TIME:   0.031 TIME LEFT:  2.00D  GRAD.:     3.015 HEAT: -346.4455
 CYCLE:   178 TIME:   0.031 TIME LEFT:  2.00D  GRAD.:     4.263 HEAT: -346.4627
 CYCLE:   179 TIME:   0.035 TIME LEFT:  2.00D  GRAD.:     2.847 HEAT: -346.4745
 CYCLE:   180 TIME:   0.027 TIME LEFT:  2.00D  GRAD.:     2.656 HEAT: -346.4842
 CYCLE:   181 TIME:   0.031 TIME LEFT:  2.00D  GRAD.:     2.818 HEAT: -346.4933
 CYCLE:   182 TIME:   0.027 TIME LEFT:  2.00D  GRAD.:     2.751 HEAT: -346.5006
 CYCLE:   183 TIME:   0.035 TIME LEFT:  2.00D  GRAD.:     2.681 HEAT: -346.5096
 CYCLE:   184 TIME:   0.035 TIME LEFT:  2.00D  GRAD.:     3.181 HEAT: -346.5179
 CYCLE:   185 TIME:   0.027 TIME LEFT:  2.00D  GRAD.:     2.937 HEAT: -346.5284
 CYCLE:   186 TIME:   0.031 TIME LEFT:  2.00D  GRAD.:     1.956 HEAT: -346.5376
 CYCLE:   187 TIME:   0.027 TIME LEFT:  2.00D  GRAD.:     1.970 HEAT: -346.5484
 CYCLE:   188 TIME:   0.027 TIME LEFT:  2.00D  GRAD.:     2.090 HEAT: -346.5571
 CYCLE:   189 TIME:   0.031 TIME LEFT:  2.00D  GRAD.:     2.351 HEAT: -346.5715
 CYCLE:   190 TIME:   0.027 TIME LEFT:  2.00D  GRAD.:     2.455 HEAT: -346.5864
 CYCLE:   191 TIME:   0.035 TIME LEFT:  2.00D  GRAD.:     2.981 HEAT: -346.6067
 CYCLE:   192 TIME:   0.035 TIME LEFT:  2.00D  GRAD.:     3.812 HEAT: -346.6124
 CYCLE:   193 TIME:   0.031 TIME LEFT:  2.00D  GRAD.:     2.185 HEAT: -346.6291
 CYCLE:   194 TIME:   0.031 TIME LEFT:  2.00D  GRAD.:     2.337 HEAT: -346.6402
 CYCLE:   195 TIME:   0.035 TIME LEFT:  2.00D  GRAD.:     1.972 HEAT: -346.6470
 CYCLE:   196 TIME:   0.027 TIME LEFT:  2.00D  GRAD.:     2.680 HEAT: -346.6572
 CYCLE:   197 TIME:   0.027 TIME LEFT:  2.00D  GRAD.:     1.978 HEAT: -346.6648
 CYCLE:   198 TIME:   0.027 TIME LEFT:  2.00D  GRAD.:     2.060 HEAT: -346.6775
 CYCLE:   199 TIME:   0.031 TIME LEFT:  2.00D  GRAD.:     2.222 HEAT: -346.6896
 CYCLE:   200 TIME:   0.027 TIME LEFT:  2.00D  GRAD.:     2.631 HEAT: -346.7000
 CYCLE:   201 TIME:   0.031 TIME LEFT:  2.00D  GRAD.:     3.664 HEAT: -346.7111
 CYCLE:   202 TIME:   0.035 TIME LEFT:  2.00D  GRAD.:     3.291 HEAT: -346.7202
 CYCLE:   203 TIME:   0.027 TIME LEFT:  2.00D  GRAD.:     2.287 HEAT: -346.7339
 CYCLE:   204 TIME:   0.027 TIME LEFT:  2.00D  GRAD.:     2.448 HEAT: -346.7454
 CYCLE:   205 TIME:   0.031 TIME LEFT:  2.00D  GRAD.:     3.231 HEAT: -346.7659
 CYCLE:   206 TIME:   0.035 TIME LEFT:  2.00D  GRAD.:     3.955 HEAT: -346.7835
 CYCLE:   207 TIME:   0.031 TIME LEFT:  2.00D  GRAD.:     5.301 HEAT: -346.8024
 CYCLE:   208 TIME:   0.027 TIME LEFT:  2.00D  GRAD.:     6.342 HEAT: -346.8206
 CYCLE:   209 TIME:   0.031 TIME LEFT:  2.00D  GRAD.:     4.142 HEAT: -346.8542
 CYCLE:   210 TIME:   0.039 TIME LEFT:  2.00D  GRAD.:     4.522 HEAT: -346.8883
 CYCLE:   211 TIME:   0.043 TIME LEFT:  2.00D  GRAD.:     3.960 HEAT: -346.9127
 CYCLE:   212 TIME:   0.031 TIME LEFT:  2.00D  GRAD.:     4.312 HEAT: -346.9267
 CYCLE:   213 TIME:   0.035 TIME LEFT:  2.00D  GRAD.:     4.112 HEAT: -346.9343
 CYCLE:   214 TIME:   0.027 TIME LEFT:  2.00D  GRAD.:     4.710 HEAT: -346.9415
 CYCLE:   215 TIME:   0.031 TIME LEFT:  2.00D  GRAD.:     2.136 HEAT: -346.9543
 CYCLE:   216 TIME:   0.031 TIME LEFT:  2.00D  GRAD.:     1.692 HEAT: -346.9615
 CYCLE:   217 TIME:   0.027 TIME LEFT:  2.00D  GRAD.:     1.830 HEAT: -346.9688
 CYCLE:   218 TIME:   0.031 TIME LEFT:  2.00D  GRAD.:     2.250 HEAT: -346.9732
 CYCLE:   219 TIME:   0.031 TIME LEFT:  2.00D  GRAD.:     1.603 HEAT: -346.9774
 CYCLE:   220 TIME:   0.035 TIME LEFT:  2.00D  GRAD.:     1.364 HEAT: -346.9816
 CYCLE:   221 TIME:   0.035 TIME LEFT:  2.00D  GRAD.:     1.553 HEAT: -346.9851
 CYCLE:   222 TIME:   0.031 TIME LEFT:  2.00D  GRAD.:     1.162 HEAT: -346.9888
 CYCLE:   223 TIME:   0.027 TIME LEFT:  2.00D  GRAD.:     1.244 HEAT: -346.9915
 CYCLE:   224 TIME:   0.031 TIME LEFT:  2.00D  GRAD.:     0.863 HEAT: -346.9926
 CYCLE:   225 TIME:   0.027 TIME LEFT:  2.00D  GRAD.:     0.665 HEAT: -346.9933
 CYCLE:   226 TIME:   0.039 TIME LEFT:  2.00D  GRAD.:     0.956 HEAT: -346.9949
 CYCLE:   227 TIME:   0.027 TIME LEFT:  2.00D  GRAD.:     0.993 HEAT: -346.9960
 CYCLE:   228 TIME:   0.031 TIME LEFT:  2.00D  GRAD.:     0.976 HEAT: -346.9981
 CYCLE:   229 TIME:   0.031 TIME LEFT:  2.00D  GRAD.:     0.881 HEAT: -347.0000
 CYCLE:   230 TIME:   0.031 TIME LEFT:  2.00D  GRAD.:     0.709 HEAT: -347.0010
 CYCLE:   231 TIME:   0.031 TIME LEFT:  2.00D  GRAD.:     0.787 HEAT: -347.0017
 CYCLE:   232 TIME:   0.027 TIME LEFT:  2.00D  GRAD.:     0.714 HEAT: -347.0022
 CYCLE:   233 TIME:   0.031 TIME LEFT:  2.00D  GRAD.:     0.706 HEAT: -347.0030
 CYCLE:   234 TIME:   0.035 TIME LEFT:  2.00D  GRAD.:     0.696 HEAT: -347.0037
 CYCLE:   235 TIME:   0.035 TIME LEFT:  2.00D  GRAD.:     0.887 HEAT: -347.0059
 CYCLE:   236 TIME:   0.035 TIME LEFT:  2.00D  GRAD.:     0.889 HEAT: -347.0072
 CYCLE:   237 TIME:   0.031 TIME LEFT:  2.00D  GRAD.:     1.791 HEAT: -347.0081
 CYCLE:   238 TIME:   0.035 TIME LEFT:  2.00D  GRAD.:     1.043 HEAT: -347.0099
 CYCLE:   239 TIME:   0.027 TIME LEFT:  2.00D  GRAD.:     0.939 HEAT: -347.0112
 CYCLE:   240 TIME:   0.035 TIME LEFT:  2.00D  GRAD.:     1.245 HEAT: -347.0140
 CYCLE:   241 TIME:   0.027 TIME LEFT:  2.00D  GRAD.:     2.013 HEAT: -347.0142
 CYCLE:   242 TIME:   0.027 TIME LEFT:  2.00D  GRAD.:     1.503 HEAT: -347.0167
 CYCLE:   243 TIME:   0.035 TIME LEFT:  2.00D  GRAD.:     0.906 HEAT: -347.0200
 CYCLE:   244 TIME:   0.031 TIME LEFT:  2.00D  GRAD.:     0.600 HEAT: -347.0206
 CYCLE:   245 TIME:   0.031 TIME LEFT:  2.00D  GRAD.:     0.647 HEAT: -347.0211
 CYCLE:   246 TIME:   0.035 TIME LEFT:  2.00D  GRAD.:     0.663 HEAT: -347.0215
 CYCLE:   247 TIME:   0.031 TIME LEFT:  2.00D  GRAD.:     0.735 HEAT: -347.0225
 CYCLE:   248 TIME:   0.039 TIME LEFT:  2.00D  GRAD.:     0.828 HEAT: -347.0239
 CYCLE:   249 TIME:   0.031 TIME LEFT:  2.00D  GRAD.:     1.009 HEAT: -347.0258
 CYCLE:   250 TIME:   0.031 TIME LEFT:  2.00D  GRAD.:     1.202 HEAT: -347.0274
 CYCLE:   251 TIME:   0.027 TIME LEFT:  2.00D  GRAD.:     1.021 HEAT: -347.0285
 CYCLE:   252 TIME:   0.027 TIME LEFT:  2.00D  GRAD.:     0.922 HEAT: -347.0294
 CYCLE:   253 TIME:   0.031 TIME LEFT:  2.00D  GRAD.:     0.840 HEAT: -347.0303
 CYCLE:   254 TIME:   0.031 TIME LEFT:  2.00D  GRAD.:     1.004 HEAT: -347.0326
 CYCLE:   255 TIME:   0.047 TIME LEFT:  2.00D  GRAD.:     1.283 HEAT: -347.0357
 CYCLE:   256 TIME:   0.062 TIME LEFT:  2.00D  GRAD.:     1.557 HEAT: -347.0402
 CYCLE:   257 TIME:   0.070 TIME LEFT:  2.00D  GRAD.:     0.968 HEAT: -347.0423
 CYCLE:   258 TIME:   0.070 TIME LEFT:  2.00D  GRAD.:     1.106 HEAT: -347.0442
 CYCLE:   259 TIME:   0.070 TIME LEFT:  2.00D  GRAD.:     0.870 HEAT: -347.0449
 CYCLE:   260 TIME:   0.094 TIME LEFT:  2.00D  GRAD.:     0.768 HEAT: -347.0458
 CYCLE:   261 TIME:   0.070 TIME LEFT:  2.00D  GRAD.:     0.908 HEAT: -347.0485
 CYCLE:   262 TIME:   0.059 TIME LEFT:  2.00D  GRAD.:     0.795 HEAT: -347.0495
 CYCLE:   263 TIME:   0.062 TIME LEFT:  2.00D  GRAD.:     1.561 HEAT: -347.0541
 CYCLE:   264 TIME:   0.035 TIME LEFT:  2.00D  GRAD.:     1.074 HEAT: -347.0559
 CYCLE:   265 TIME:   0.035 TIME LEFT:  2.00D  GRAD.:     0.935 HEAT: -347.0584
 CYCLE:   266 TIME:   0.039 TIME LEFT:  2.00D  GRAD.:     0.535 HEAT: -347.0589
 CYCLE:   267 TIME:   0.035 TIME LEFT:  2.00D  GRAD.:     0.390 HEAT: -347.0591
 CYCLE:   268 TIME:   0.035 TIME LEFT:  2.00D  GRAD.:     0.490 HEAT: -347.0594
 CYCLE:   269 TIME:   0.035 TIME LEFT:  2.00D  GRAD.:     0.534 HEAT: -347.0599
 CYCLE:   270 TIME:   0.039 TIME LEFT:  2.00D  GRAD.:     0.527 HEAT: -347.0606
 CYCLE:   271 TIME:   0.051 TIME LEFT:  2.00D  GRAD.:     0.501 HEAT: -347.0613
 CYCLE:   272 TIME:   0.039 TIME LEFT:  2.00D  GRAD.:     0.570 HEAT: -347.0621
 CYCLE:   273 TIME:   0.039 TIME LEFT:  2.00D  GRAD.:     0.648 HEAT: -347.0627
 CYCLE:   274 TIME:   0.035 TIME LEFT:  2.00D  GRAD.:     0.625 HEAT: -347.0635
 CYCLE:   275 TIME:   0.035 TIME LEFT:  2.00D  GRAD.:     0.709 HEAT: -347.0645
 CYCLE:   276 TIME:   0.035 TIME LEFT:  2.00D  GRAD.:     0.754 HEAT: -347.0657
 CYCLE:   277 TIME:   0.047 TIME LEFT:  2.00D  GRAD.:     0.867 HEAT: -347.0671
 CYCLE:   278 TIME:   0.039 TIME LEFT:  2.00D  GRAD.:     0.697 HEAT: -347.0683
 CYCLE:   279 TIME:   0.035 TIME LEFT:  2.00D  GRAD.:     0.902 HEAT: -347.0696
 CYCLE:   280 TIME:   0.035 TIME LEFT:  2.00D  GRAD.:     0.865 HEAT: -347.0712
 CYCLE:   281 TIME:   0.035 TIME LEFT:  2.00D  GRAD.:     1.183 HEAT: -347.0738
 CYCLE:   282 TIME:   0.035 TIME LEFT:  2.00D  GRAD.:     1.433 HEAT: -347.0775
 CYCLE:   283 TIME:   0.215 TIME LEFT:  2.00D  GRAD.:     2.050 HEAT: -347.0812
 CYCLE:   284 TIME:   0.074 TIME LEFT:  2.00D  GRAD.:     1.562 HEAT: -347.0845
 CYCLE:   285 TIME:   0.059 TIME LEFT:  2.00D  GRAD.:     2.254 HEAT: -347.0886
 CYCLE:   286 TIME:   0.062 TIME LEFT:  2.00D  GRAD.:     1.934 HEAT: -347.0918
 CYCLE:   287 TIME:   0.062 TIME LEFT:  2.00D  GRAD.:     1.408 HEAT: -347.0963
 CYCLE:   288 TIME:   0.059 TIME LEFT:  2.00D  GRAD.:     2.065 HEAT: -347.1025
 CYCLE:   289 TIME:   0.066 TIME LEFT:  2.00D  GRAD.:     0.989 HEAT: -347.1060
 CYCLE:   290 TIME:   0.059 TIME LEFT:  2.00D  GRAD.:     2.140 HEAT: -347.1101
 CYCLE:   291 TIME:   0.039 TIME LEFT:  2.00D  GRAD.:     1.075 HEAT: -347.1141
 CYCLE:   292 TIME:   0.035 TIME LEFT:  2.00D  GRAD.:     2.004 HEAT: -347.1166
 CYCLE:   293 TIME:   0.035 TIME LEFT:  2.00D  GRAD.:     3.123 HEAT: -347.1171
 CYCLE:   294 TIME:   0.031 TIME LEFT:  2.00D  GRAD.:     1.208 HEAT: -347.1230
 CYCLE:   295 TIME:   0.035 TIME LEFT:  2.00D  GRAD.:     1.409 HEAT: -347.1251
 CYCLE:   296 TIME:   0.035 TIME LEFT:  2.00D  GRAD.:     2.426 HEAT: -347.1283
 CYCLE:   297 TIME:   0.039 TIME LEFT:  2.00D  GRAD.:     2.413 HEAT: -347.1336
 CYCLE:   298 TIME:   0.047 TIME LEFT:  2.00D  GRAD.:     4.505 HEAT: -347.1314
 CYCLE:   299 TIME:   0.027 TIME LEFT:  2.00D  GRAD.:     1.771 HEAT: -347.1375
 CYCLE:   300 TIME:   0.035 TIME LEFT:  2.00D  GRAD.:     3.104 HEAT: -347.1384
 CYCLE:   301 TIME:   0.031 TIME LEFT:  2.00D  GRAD.:     1.309 HEAT: -347.1448
 CYCLE:   302 TIME:   0.039 TIME LEFT:  2.00D  GRAD.:     1.872 HEAT: -347.1481
 CYCLE:   303 TIME:   0.035 TIME LEFT:  2.00D  GRAD.:     3.216 HEAT: -347.1529
 CYCLE:   304 TIME:   0.043 TIME LEFT:  2.00D  GRAD.:     3.541 HEAT: -347.1664
 CYCLE:   305 TIME:   0.039 TIME LEFT:  2.00D  GRAD.:     7.160 HEAT: -347.1730
 CYCLE:   306 TIME:   0.090 TIME LEFT:  2.00D  GRAD.:     5.171 HEAT: -347.1829
 CYCLE:   307 TIME:   0.031 TIME LEFT:  2.00D  GRAD.:     5.078 HEAT: -347.1871
 CYCLE:   308 TIME:   0.039 TIME LEFT:  2.00D  GRAD.:     2.766 HEAT: -347.2028
 CYCLE:   309 TIME:   0.035 TIME LEFT:  2.00D  GRAD.:     3.395 HEAT: -347.2106
 CYCLE:   310 TIME:   0.035 TIME LEFT:  2.00D  GRAD.:     2.657 HEAT: -347.2246
 CYCLE:   311 TIME:   0.035 TIME LEFT:  2.00D  GRAD.:     5.336 HEAT: -347.2405
 CYCLE:   312 TIME:   0.039 TIME LEFT:  2.00D  GRAD.:     4.628 HEAT: -347.2800
 CYCLE:   313 TIME:   0.043 TIME LEFT:  2.00D  GRAD.:     8.169 HEAT: -347.3351
 CYCLE:   314 TIME:   0.035 TIME LEFT:  2.00D  GRAD.:    13.544 HEAT: -347.4486
 CYCLE:   315 TIME:   0.309 TIME LEFT:  2.00D  GRAD.:    13.641 HEAT: -347.5184
 CYCLE:   316 TIME:   0.133 TIME LEFT:  2.00D  GRAD.:    12.519 HEAT: -347.5788
 CYCLE:   317 TIME:   0.051 TIME LEFT:  2.00D  GRAD.:    12.835 HEAT: -347.6238
 CYCLE:   318 TIME:   0.039 TIME LEFT:  2.00D  GRAD.:     7.774 HEAT: -347.7090
 CYCLE:   319 TIME:   0.043 TIME LEFT:  2.00D  GRAD.:     2.924 HEAT: -347.8112
 CYCLE:   320 TIME:   0.086 TIME LEFT:  2.00D  GRAD.:     5.740 HEAT: -347.9801
 CYCLE:   321 TIME:   0.039 TIME LEFT:  2.00D  GRAD.:    15.576 HEAT: -348.2846
 CYCLE:   322 TIME:   0.066 TIME LEFT:  2.00D  GRAD.:    17.554 HEAT: -348.4472
 CYCLE:   323 TIME:   0.082 TIME LEFT:  2.00D  GRAD.:    18.634 HEAT: -348.4780
 CYCLE:   324 TIME:   0.055 TIME LEFT:  2.00D  GRAD.:    11.925 HEAT: -348.5847
 CYCLE:   325 TIME:   0.031 TIME LEFT:  2.00D  GRAD.:     5.200 HEAT: -348.6785
 CYCLE:   326 TIME:   0.031 TIME LEFT:  2.00D  GRAD.:     6.833 HEAT: -348.7219
 CYCLE:   327 TIME:   0.035 TIME LEFT:  2.00D  GRAD.:     6.619 HEAT: -348.7912
 CYCLE:   328 TIME:   0.031 TIME LEFT:  2.00D  GRAD.:     9.450 HEAT: -348.8718
 CYCLE:   329 TIME:   0.082 TIME LEFT:  2.00D  GRAD.:    12.650 HEAT: -348.8990
 CYCLE:   330 TIME:   0.031 TIME LEFT:  2.00D  GRAD.:     6.346 HEAT: -349.0118
 CYCLE:   331 TIME:   0.031 TIME LEFT:  2.00D  GRAD.:    14.978 HEAT: -349.4825
 CYCLE:   332 TIME:   0.062 TIME LEFT:  2.00D  GRAD.:    26.315 HEAT: -349.6797
 CYCLE:   333 TIME:   0.035 TIME LEFT:  2.00D  GRAD.:    20.640 HEAT: -349.9307
 CYCLE:   334 TIME:   0.055 TIME LEFT:  2.00D  GRAD.:    15.108 HEAT: -350.0964
 CYCLE:   335 TIME:   0.031 TIME LEFT:  2.00D  GRAD.:     8.964 HEAT: -350.2260
 CYCLE:   336 TIME:   0.023 TIME LEFT:  2.00D  GRAD.:     8.393 HEAT: -350.3143
 CYCLE:   337 TIME:   0.027 TIME LEFT:  2.00D  GRAD.:     8.997 HEAT: -350.4208
 CYCLE:   338 TIME:   0.031 TIME LEFT:  2.00D  GRAD.:     8.355 HEAT: -350.5434
 CYCLE:   339 TIME:   0.035 TIME LEFT:  2.00D  GRAD.:     9.910 HEAT: -350.6035
 CYCLE:   340 TIME:   0.078 TIME LEFT:  2.00D  GRAD.:     9.807 HEAT: -350.6401
 CYCLE:   341 TIME:   0.043 TIME LEFT:  2.00D  GRAD.:     8.818 HEAT: -350.6782
 CYCLE:   342 TIME:   0.039 TIME LEFT:  2.00D  GRAD.:     6.756 HEAT: -350.7393
 CYCLE:   343 TIME:   0.062 TIME LEFT:  2.00D  GRAD.:     6.971 HEAT: -350.7482
 CYCLE:   344 TIME:   0.031 TIME LEFT:  2.00D  GRAD.:     4.345 HEAT: -350.7843
 CYCLE:   345 TIME:   0.031 TIME LEFT:  2.00D  GRAD.:     8.159 HEAT: -350.7856
 CYCLE:   346 TIME:   0.027 TIME LEFT:  2.00D  GRAD.:     4.737 HEAT: -350.8216
 CYCLE:   347 TIME:   0.027 TIME LEFT:  2.00D  GRAD.:     6.089 HEAT: -350.8262
 CYCLE:   348 TIME:   0.031 TIME LEFT:  2.00D  GRAD.:     3.486 HEAT: -350.8453
 CYCLE:   349 TIME:   0.027 TIME LEFT:  2.00D  GRAD.:     3.464 HEAT: -350.8537
 CYCLE:   350 TIME:   0.031 TIME LEFT:  2.00D  GRAD.:     4.602 HEAT: -350.8655
 CYCLE:   351 TIME:   0.031 TIME LEFT:  2.00D  GRAD.:     3.978 HEAT: -350.8816
 CYCLE:   352 TIME:   0.035 TIME LEFT:  2.00D  GRAD.:     5.096 HEAT: -350.8896
 CYCLE:   353 TIME:   0.043 TIME LEFT:  2.00D  GRAD.:     4.197 HEAT: -350.9078
 CYCLE:   354 TIME:   0.039 TIME LEFT:  2.00D  GRAD.:     3.535 HEAT: -350.9176
 CYCLE:   355 TIME:   0.047 TIME LEFT:  2.00D  GRAD.:     2.904 HEAT: -350.9315
 CYCLE:   356 TIME:   0.035 TIME LEFT:  2.00D  GRAD.:     3.202 HEAT: -350.9489
 CYCLE:   357 TIME:   0.039 TIME LEFT:  2.00D  GRAD.:     2.612 HEAT: -350.9637
 CYCLE:   358 TIME:   0.035 TIME LEFT:  2.00D  GRAD.:     4.014 HEAT: -350.9824
 CYCLE:   359 TIME:   0.031 TIME LEFT:  2.00D  GRAD.:     6.354 HEAT: -351.0017
 CYCLE:   360 TIME:   0.055 TIME LEFT:  2.00D  GRAD.:     4.068 HEAT: -351.0198
 CYCLE:   361 TIME:   0.027 TIME LEFT:  2.00D  GRAD.:     4.317 HEAT: -351.0293
 CYCLE:   362 TIME:   0.027 TIME LEFT:  2.00D  GRAD.:     3.578 HEAT: -351.0433
 CYCLE:   363 TIME:   0.031 TIME LEFT:  2.00D  GRAD.:     2.362 HEAT: -351.0535
 CYCLE:   364 TIME:   0.027 TIME LEFT:  2.00D  GRAD.:     2.472 HEAT: -351.0633
 CYCLE:   365 TIME:   0.031 TIME LEFT:  2.00D  GRAD.:     3.232 HEAT: -351.0694
 CYCLE:   366 TIME:   0.031 TIME LEFT:  2.00D  GRAD.:     2.493 HEAT: -351.0744
 CYCLE:   367 TIME:   0.035 TIME LEFT:  2.00D  GRAD.:     2.524 HEAT: -351.0786
 CYCLE:   368 TIME:   0.027 TIME LEFT:  2.00D  GRAD.:     1.853 HEAT: -351.0838
 CYCLE:   369 TIME:   0.031 TIME LEFT:  2.00D  GRAD.:     1.759 HEAT: -351.0891
 CYCLE:   370 TIME:   0.035 TIME LEFT:  2.00D  GRAD.:     1.898 HEAT: -351.0947
 CYCLE:   371 TIME:   0.035 TIME LEFT:  2.00D  GRAD.:     2.216 HEAT: -351.0977
 CYCLE:   372 TIME:   0.035 TIME LEFT:  2.00D  GRAD.:     2.297 HEAT: -351.1058
 CYCLE:   373 TIME:   0.035 TIME LEFT:  2.00D  GRAD.:     2.200 HEAT: -351.1150
 CYCLE:   374 TIME:   0.031 TIME LEFT:  2.00D  GRAD.:     1.862 HEAT: -351.1197
 CYCLE:   375 TIME:   0.031 TIME LEFT:  2.00D  GRAD.:     1.448 HEAT: -351.1250
 CYCLE:   376 TIME:   0.031 TIME LEFT:  2.00D  GRAD.:     1.241 HEAT: -351.1299
 CYCLE:   377 TIME:   0.027 TIME LEFT:  2.00D  GRAD.:     1.383 HEAT: -351.1345
 CYCLE:   378 TIME:   0.027 TIME LEFT:  2.00D  GRAD.:     1.836 HEAT: -351.1339
 CYCLE:   379 TIME:   0.027 TIME LEFT:  2.00D  GRAD.:     1.300 HEAT: -351.1383
 CYCLE:   380 TIME:   0.027 TIME LEFT:  2.00D  GRAD.:     1.660 HEAT: -351.1371
 CYCLE:   381 TIME:   0.031 TIME LEFT:  2.00D  GRAD.:     1.503 HEAT: -351.1416
 CYCLE:   382 TIME:   0.031 TIME LEFT:  2.00D  GRAD.:     1.629 HEAT: -351.1466
 CYCLE:   383 TIME:   0.027 TIME LEFT:  2.00D  GRAD.:     1.398 HEAT: -351.1507
 CYCLE:   384 TIME:   0.039 TIME LEFT:  2.00D  GRAD.:     1.682 HEAT: -351.1600
 CYCLE:   385 TIME:   0.039 TIME LEFT:  2.00D  GRAD.:     5.615 HEAT: -351.1773
 CYCLE:   386 TIME:   0.078 TIME LEFT:  2.00D  GRAD.:     3.876 HEAT: -351.1851
 CYCLE:   387 TIME:   0.039 TIME LEFT:  2.00D  GRAD.:     2.487 HEAT: -351.1941
 CYCLE:   388 TIME:   0.043 TIME LEFT:  2.00D  GRAD.:     2.845 HEAT: -351.2011
 CYCLE:   389 TIME:   0.039 TIME LEFT:  2.00D  GRAD.:     2.704 HEAT: -351.2105
 CYCLE:   390 TIME:   0.035 TIME LEFT:  2.00D  GRAD.:     1.948 HEAT: -351.2250
 CYCLE:   391 TIME:   0.031 TIME LEFT:  2.00D  GRAD.:     2.033 HEAT: -351.2350
 CYCLE:   392 TIME:   0.027 TIME LEFT:  2.00D  GRAD.:     2.812 HEAT: -351.2375
 CYCLE:   393 TIME:   0.031 TIME LEFT:  2.00D  GRAD.:     2.687 HEAT: -351.2399
 CYCLE:   394 TIME:   0.027 TIME LEFT:  2.00D  GRAD.:     1.381 HEAT: -351.2434
 CYCLE:   395 TIME:   0.035 TIME LEFT:  2.00D  GRAD.:     1.281 HEAT: -351.2454
 CYCLE:   396 TIME:   0.031 TIME LEFT:  2.00D  GRAD.:     1.385 HEAT: -351.2487
 CYCLE:   397 TIME:   0.035 TIME LEFT:  2.00D  GRAD.:     3.004 HEAT: -351.2541
 CYCLE:   398 TIME:   0.035 TIME LEFT:  2.00D  GRAD.:     1.824 HEAT: -351.2605
 CYCLE:   399 TIME:   0.031 TIME LEFT:  2.00D  GRAD.:     1.258 HEAT: -351.2644
 CYCLE:   400 TIME:   0.031 TIME LEFT:  2.00D  GRAD.:     1.271 HEAT: -351.2728
 CYCLE:   401 TIME:   0.027 TIME LEFT:  2.00D  GRAD.:     1.474 HEAT: -351.2759
 CYCLE:   402 TIME:   0.039 TIME LEFT:  2.00D  GRAD.:     1.367 HEAT: -351.2788
 CYCLE:   403 TIME:   0.039 TIME LEFT:  2.00D  GRAD.:     1.177 HEAT: -351.2834
 CYCLE:   404 TIME:   0.031 TIME LEFT:  2.00D  GRAD.:     1.546 HEAT: -351.2871
 CYCLE:   405 TIME:   0.027 TIME LEFT:  2.00D  GRAD.:     1.211 HEAT: -351.2902
 CYCLE:   406 TIME:   0.027 TIME LEFT:  2.00D  GRAD.:     1.077 HEAT: -351.2928
 CYCLE:   407 TIME:   0.027 TIME LEFT:  2.00D  GRAD.:     1.060 HEAT: -351.2953
 CYCLE:   408 TIME:   0.031 TIME LEFT:  2.00D  GRAD.:     1.054 HEAT: -351.2969
 CYCLE:   409 TIME:   0.027 TIME LEFT:  2.00D  GRAD.:     1.100 HEAT: -351.2982
 CYCLE:   410 TIME:   0.027 TIME LEFT:  2.00D  GRAD.:     0.897 HEAT: -351.2997
 CYCLE:   411 TIME:   0.027 TIME LEFT:  2.00D  GRAD.:     0.762 HEAT: -351.3011
 CYCLE:   412 TIME:   0.039 TIME LEFT:  2.00D  GRAD.:     0.880 HEAT: -351.3025
 CYCLE:   413 TIME:   0.035 TIME LEFT:  2.00D  GRAD.:     1.099 HEAT: -351.3041
 CYCLE:   414 TIME:   0.031 TIME LEFT:  2.00D  GRAD.:     1.082 HEAT: -351.3060
 CYCLE:   415 TIME:   0.035 TIME LEFT:  2.00D  GRAD.:     1.392 HEAT: -351.3098
 CYCLE:   416 TIME:   0.035 TIME LEFT:  2.00D  GRAD.:     1.093 HEAT: -351.3122
 CYCLE:   417 TIME:   0.031 TIME LEFT:  2.00D  GRAD.:     1.527 HEAT: -351.3176
 CYCLE:   418 TIME:   0.027 TIME LEFT:  2.00D  GRAD.:     1.457 HEAT: -351.3207
 CYCLE:   419 TIME:   0.039 TIME LEFT:  2.00D  GRAD.:     2.373 HEAT: -351.3256
 CYCLE:   420 TIME:   0.027 TIME LEFT:  2.00D  GRAD.:     1.946 HEAT: -351.3306
 CYCLE:   421 TIME:   0.035 TIME LEFT:  2.00D  GRAD.:     1.644 HEAT: -351.3370
 CYCLE:   422 TIME:   0.035 TIME LEFT:  2.00D  GRAD.:     1.928 HEAT: -351.3454
 CYCLE:   423 TIME:   0.031 TIME LEFT:  2.00D  GRAD.:     2.145 HEAT: -351.3522
 CYCLE:   424 TIME:   0.031 TIME LEFT:  2.00D  GRAD.:     2.317 HEAT: -351.3618
 CYCLE:   425 TIME:   0.031 TIME LEFT:  2.00D  GRAD.:     1.568 HEAT: -351.3655
 CYCLE:   426 TIME:   0.031 TIME LEFT:  2.00D  GRAD.:     0.903 HEAT: -351.3678
 CYCLE:   427 TIME:   0.027 TIME LEFT:  2.00D  GRAD.:     1.109 HEAT: -351.3693
 CYCLE:   428 TIME:   0.035 TIME LEFT:  2.00D  GRAD.:     1.354 HEAT: -351.3694
 CYCLE:   429 TIME:   0.031 TIME LEFT:  2.00D  GRAD.:     1.306 HEAT: -351.3724
 CYCLE:   430 TIME:   0.035 TIME LEFT:  2.00D  GRAD.:     0.823 HEAT: -351.3745
 CYCLE:   431 TIME:   0.027 TIME LEFT:  2.00D  GRAD.:     0.649 HEAT: -351.3762
 CYCLE:   432 TIME:   0.031 TIME LEFT:  2.00D  GRAD.:     1.166 HEAT: -351.3785
 CYCLE:   433 TIME:   0.031 TIME LEFT:  2.00D  GRAD.:     0.849 HEAT: -351.3806
 CYCLE:   434 TIME:   0.035 TIME LEFT:  2.00D  GRAD.:     0.814 HEAT: -351.3831
 CYCLE:   435 TIME:   0.039 TIME LEFT:  2.00D  GRAD.:     1.963 HEAT: -351.3874
 CYCLE:   436 TIME:   0.035 TIME LEFT:  2.00D  GRAD.:     0.838 HEAT: -351.3892
 CYCLE:   437 TIME:   0.031 TIME LEFT:  2.00D  GRAD.:     0.637 HEAT: -351.3899
 CYCLE:   438 TIME:   0.027 TIME LEFT:  2.00D  GRAD.:     0.571 HEAT: -351.3907
 CYCLE:   439 TIME:   0.027 TIME LEFT:  2.00D  GRAD.:     0.683 HEAT: -351.3911
 CYCLE:   440 TIME:   0.027 TIME LEFT:  2.00D  GRAD.:     0.626 HEAT: -351.3919
 CYCLE:   441 TIME:   0.027 TIME LEFT:  2.00D  GRAD.:     0.844 HEAT: -351.3925
 CYCLE:   442 TIME:   0.027 TIME LEFT:  2.00D  GRAD.:     0.902 HEAT: -351.3927
 CYCLE:   443 TIME:   0.031 TIME LEFT:  2.00D  GRAD.:     1.215 HEAT: -351.3919
 CYCLE:   444 TIME:   0.035 TIME LEFT:  2.00D  GRAD.:     0.277 HEAT: -351.3930
 CYCLE:   445 TIME:   0.039 TIME LEFT:  2.00D  GRAD.:     0.302 HEAT: -351.3931
 CYCLE:   446 TIME:   0.043 TIME LEFT:  2.00D  GRAD.:     0.913 HEAT: -351.3932
 CYCLE:   447 TIME:   0.039 TIME LEFT:  2.00D  GRAD.:     0.317 HEAT: -351.3933
 CYCLE:   448 TIME:   0.035 TIME LEFT:  2.00D  GRAD.:     0.295 HEAT: -351.3934
 CYCLE:   449 TIME:   0.039 TIME LEFT:  2.00D  GRAD.:     0.859 HEAT: -351.3938
 CYCLE:   450 TIME:   0.031 TIME LEFT:  2.00D  GRAD.:     0.324 HEAT: -351.3940
 CYCLE:   451 TIME:   0.035 TIME LEFT:  2.00D  GRAD.:     0.307 HEAT: -351.3941
 CYCLE:   452 TIME:   0.031 TIME LEFT:  2.00D  GRAD.:     0.424 HEAT: -351.3947
 CYCLE:   453 TIME:   0.027 TIME LEFT:  2.00D  GRAD.:     0.384 HEAT: -351.3950
 CYCLE:   454 TIME:   0.027 TIME LEFT:  2.00D  GRAD.:     0.910 HEAT: -351.3955
 CYCLE:   455 TIME:   0.031 TIME LEFT:  2.00D  GRAD.:     0.858 HEAT: -351.3958
 CYCLE:   456 TIME:   0.031 TIME LEFT:  2.00D  GRAD.:     0.551 HEAT: -351.3962
 CYCLE:   457 TIME:   0.023 TIME LEFT:  2.00D  GRAD.:     0.578 HEAT: -351.3970
 CYCLE:   458 TIME:   0.031 TIME LEFT:  2.00D  GRAD.:     4.338 HEAT: -351.3956
 CYCLE:   459 TIME:   0.027 TIME LEFT:  2.00D  GRAD.:     0.832 HEAT: -351.4031
 CYCLE:   460 TIME:   0.027 TIME LEFT:  2.00D  GRAD.:     0.850 HEAT: -351.4057
 CYCLE:   461 TIME:   0.039 TIME LEFT:  2.00D  GRAD.:     4.503 HEAT: -351.4021
 CYCLE:   462 TIME:   0.035 TIME LEFT:  2.00D  GRAD.:     0.973 HEAT: -351.4097
 CYCLE:   463 TIME:   0.031 TIME LEFT:  2.00D  GRAD.:     0.983 HEAT: -351.4114
 CYCLE:   464 TIME:   0.035 TIME LEFT:  2.00D  GRAD.:     3.158 HEAT: -351.4114
 CYCLE:   465 TIME:   0.031 TIME LEFT:  2.00D  GRAD.:     0.926 HEAT: -351.4148
 CYCLE:   466 TIME:   0.035 TIME LEFT:  2.00D  GRAD.:     1.366 HEAT: -351.4160
 CYCLE:   467 TIME:   0.035 TIME LEFT:  2.00D  GRAD.:     1.936 HEAT: -351.4194
 CYCLE:   468 TIME:   0.031 TIME LEFT:  2.00D  GRAD.:     1.537 HEAT: -351.4231
 CYCLE:   469 TIME:   0.027 TIME LEFT:  2.00D  GRAD.:     1.100 HEAT: -351.4266
 CYCLE:   470 TIME:   0.031 TIME LEFT:  2.00D  GRAD.:     3.777 HEAT: -351.4253
 CYCLE:   471 TIME:   0.039 TIME LEFT:  2.00D  GRAD.:     0.968 HEAT: -351.4303
 CYCLE:   472 TIME:   0.031 TIME LEFT:  2.00D  GRAD.:     1.100 HEAT: -351.4326
 CYCLE:   473 TIME:   0.027 TIME LEFT:  2.00D  GRAD.:     4.156 HEAT: -351.4310
 CYCLE:   474 TIME:   0.027 TIME LEFT:  2.00D  GRAD.:     1.415 HEAT: -351.4380
 CYCLE:   475 TIME:   0.031 TIME LEFT:  2.00D  GRAD.:     0.805 HEAT: -351.4412
 CYCLE:   476 TIME:   0.031 TIME LEFT:  2.00D  GRAD.:     4.291 HEAT: -351.4413
 CYCLE:   477 TIME:   0.035 TIME LEFT:  2.00D  GRAD.:     0.609 HEAT: -351.4475
 CYCLE:   478 TIME:   0.027 TIME LEFT:  2.00D  GRAD.:     0.637 HEAT: -351.4502
 CYCLE:   479 TIME:   0.062 TIME LEFT:  2.00D  GRAD.:     2.069 HEAT: -351.4513
 CYCLE:   480 TIME:   0.031 TIME LEFT:  2.00D  GRAD.:     0.948 HEAT: -351.4528
 CYCLE:   481 TIME:   0.035 TIME LEFT:  2.00D  GRAD.:     0.887 HEAT: -351.4532
 CYCLE:   482 TIME:   0.035 TIME LEFT:  2.00D  GRAD.:     1.095 HEAT: -351.4540
 CYCLE:   483 TIME:   0.027 TIME LEFT:  2.00D  GRAD.:     1.016 HEAT: -351.4545
 CYCLE:   484 TIME:   0.031 TIME LEFT:  2.00D  GRAD.:     0.872 HEAT: -351.4553
 CYCLE:   485 TIME:   0.027 TIME LEFT:  2.00D  GRAD.:     0.666 HEAT: -351.4557
 CYCLE:   486 TIME:   0.031 TIME LEFT:  2.00D  GRAD.:     0.559 HEAT: -351.4562
 CYCLE:   487 TIME:   0.027 TIME LEFT:  2.00D  GRAD.:     3.265 HEAT: -351.4564
 CYCLE:   488 TIME:   0.059 TIME LEFT:  2.00D  GRAD.:     3.160 HEAT: -351.4469
 CYCLE:   489 TIME:   0.035 TIME LEFT:  2.00D  GRAD.:     1.327 HEAT: -351.4551
 CYCLE:   490 TIME:   0.051 TIME LEFT:  2.00D  GRAD.:     1.354 HEAT: -351.4559
 CYCLE:   491 TIME:   0.055 TIME LEFT:  2.00D  GRAD.:     0.520 HEAT: -351.4568
 CYCLE:   492 TIME:   0.043 TIME LEFT:  2.00D  GRAD.:     0.551 HEAT: -351.4569
 CYCLE:   493 TIME:   0.043 TIME LEFT:  2.00D  GRAD.:     0.987 HEAT: -351.4573
 CYCLE:   494 TIME:   0.051 TIME LEFT:  2.00D  GRAD.:     1.231 HEAT: -351.4578
 CYCLE:   495 TIME:   0.055 TIME LEFT:  2.00D  GRAD.:     1.012 HEAT: -351.4589
 CYCLE:   496 TIME:   0.051 TIME LEFT:  2.00D  GRAD.:     1.540 HEAT: -351.4626
 CYCLE:   497 TIME:   0.043 TIME LEFT:  2.00D  GRAD.:     1.327 HEAT: -351.4641
 CYCLE:   498 TIME:   0.039 TIME LEFT:  2.00D  GRAD.:     3.431 HEAT: -351.4605
 CYCLE:   499 TIME:   0.039 TIME LEFT:  2.00D  GRAD.:     1.475 HEAT: -351.4658
 CYCLE:   500 TIME:   0.039 TIME LEFT:  2.00D  GRAD.:     1.061 HEAT: -351.4670
 CYCLE:   501 TIME:   0.035 TIME LEFT:  2.00D  GRAD.:     0.890 HEAT: -351.4683
 CYCLE:   502 TIME:   0.039 TIME LEFT:  2.00D  GRAD.:     1.289 HEAT: -351.4696
 CYCLE:   503 TIME:   0.039 TIME LEFT:  2.00D  GRAD.:     0.620 HEAT: -351.4706
 CYCLE:   504 TIME:   0.031 TIME LEFT:  2.00D  GRAD.:     0.736 HEAT: -351.4717
 CYCLE:   505 TIME:   0.031 TIME LEFT:  2.00D  GRAD.:     0.887 HEAT: -351.4729
 CYCLE:   506 TIME:   0.031 TIME LEFT:  2.00D  GRAD.:     1.205 HEAT: -351.4746
 CYCLE:   507 TIME:   0.035 TIME LEFT:  2.00D  GRAD.:     1.105 HEAT: -351.4760
 CYCLE:   508 TIME:   0.035 TIME LEFT:  2.00D  GRAD.:     0.927 HEAT: -351.4771
 CYCLE:   509 TIME:   0.031 TIME LEFT:  2.00D  GRAD.:     0.780 HEAT: -351.4756
 CYCLE:   510 TIME:   0.027 TIME LEFT:  2.00D  GRAD.:     0.614 HEAT: -351.4773
 CYCLE:   511 TIME:   0.031 TIME LEFT:  2.00D  GRAD.:     0.915 HEAT: -351.4775
 CYCLE:   512 TIME:   0.027 TIME LEFT:  2.00D  GRAD.:     0.738 HEAT: -351.4781
 CYCLE:   513 TIME:   0.031 TIME LEFT:  2.00D  GRAD.:     0.639 HEAT: -351.4770
 CYCLE:   514 TIME:   0.031 TIME LEFT:  2.00D  GRAD.:     0.582 HEAT: -351.4787
 CYCLE:   515 TIME:   0.031 TIME LEFT:  2.00D  GRAD.:     0.949 HEAT: -351.4777
 CYCLE:   516 TIME:   0.027 TIME LEFT:  2.00D  GRAD.:     0.698 HEAT: -351.4790
 CYCLE:   517 TIME:   0.031 TIME LEFT:  2.00D  GRAD.:     0.654 HEAT: -351.4778
 CYCLE:   518 TIME:   0.031 TIME LEFT:  2.00D  GRAD.:     0.379 HEAT: -351.4801
 CYCLE:   519 TIME:   0.035 TIME LEFT:  2.00D  GRAD.:     0.627 HEAT: -351.4805
 CYCLE:   520 TIME:   0.031 TIME LEFT:  2.00D  GRAD.:     0.606 HEAT: -351.4818
 CYCLE:   521 TIME:   0.031 TIME LEFT:  2.00D  GRAD.:     1.640 HEAT: -351.4841
 CYCLE:   522 TIME:   0.035 TIME LEFT:  2.00D  GRAD.:     0.922 HEAT: -351.4845
 CYCLE:   523 TIME:   0.039 TIME LEFT:  2.00D  GRAD.:     0.654 HEAT: -351.4850
 CYCLE:   524 TIME:   0.035 TIME LEFT:  2.00D  GRAD.:     0.756 HEAT: -351.4854
 CYCLE:   525 TIME:   0.035 TIME LEFT:  2.00D  GRAD.:     0.930 HEAT: -351.4858
 CYCLE:   526 TIME:   0.039 TIME LEFT:  2.00D  GRAD.:     0.753 HEAT: -351.4864
 CYCLE:   527 TIME:   0.047 TIME LEFT:  2.00D  GRAD.:     1.078 HEAT: -351.4865
 CYCLE:   528 TIME:   0.039 TIME LEFT:  2.00D  GRAD.:     0.920 HEAT: -351.4876
 CYCLE:   529 TIME:   0.035 TIME LEFT:  2.00D  GRAD.:     0.812 HEAT: -351.4906
 CYCLE:   530 TIME:   0.027 TIME LEFT:  2.00D  GRAD.:     0.813 HEAT: -351.4912
 CYCLE:   531 TIME:   0.031 TIME LEFT:  2.00D  GRAD.:     1.020 HEAT: -351.4918
 CYCLE:   532 TIME:   0.031 TIME LEFT:  2.00D  GRAD.:     1.285 HEAT: -351.4930
 CYCLE:   533 TIME:   0.031 TIME LEFT:  2.00D  GRAD.:     1.626 HEAT: -351.4945
 CYCLE:   534 TIME:   0.035 TIME LEFT:  2.00D  GRAD.:     1.297 HEAT: -351.4985
 CYCLE:   535 TIME:   0.031 TIME LEFT:  2.00D  GRAD.:     0.992 HEAT: -351.5012
 CYCLE:   536 TIME:   0.031 TIME LEFT:  2.00D  GRAD.:     1.156 HEAT: -351.5022
 CYCLE:   537 TIME:   0.031 TIME LEFT:  2.00D  GRAD.:     0.963 HEAT: -351.5030
 CYCLE:   538 TIME:   0.027 TIME LEFT:  2.00D  GRAD.:     1.405 HEAT: -351.5038
 CYCLE:   539 TIME:   0.035 TIME LEFT:  2.00D  GRAD.:     1.152 HEAT: -351.5048
 CYCLE:   540 TIME:   0.035 TIME LEFT:  2.00D  GRAD.:     1.041 HEAT: -351.5072
 CYCLE:   541 TIME:   0.035 TIME LEFT:  2.00D  GRAD.:     1.384 HEAT: -351.5101
 CYCLE:   542 TIME:   0.027 TIME LEFT:  2.00D  GRAD.:     1.253 HEAT: -351.5111
 CYCLE:   543 TIME:   0.027 TIME LEFT:  2.00D  GRAD.:     0.906 HEAT: -351.5126
 CYCLE:   544 TIME:   0.027 TIME LEFT:  2.00D  GRAD.:     0.802 HEAT: -351.5136
 CYCLE:   545 TIME:   0.027 TIME LEFT:  2.00D  GRAD.:     0.660 HEAT: -351.5151
 CYCLE:   546 TIME:   0.031 TIME LEFT:  2.00D  GRAD.:     1.008 HEAT: -351.5157
 CYCLE:   547 TIME:   0.031 TIME LEFT:  2.00D  GRAD.:     0.648 HEAT: -351.5164
 CYCLE:   548 TIME:   0.027 TIME LEFT:  2.00D  GRAD.:     0.606 HEAT: -351.5165
 CYCLE:   549 TIME:   0.031 TIME LEFT:  2.00D  GRAD.:     0.741 HEAT: -351.5164
 CYCLE:   550 TIME:   0.035 TIME LEFT:  2.00D  GRAD.:     0.661 HEAT: -351.5167
 CYCLE:   551 TIME:   0.027 TIME LEFT:  2.00D  GRAD.:     1.040 HEAT: -351.5185
 CYCLE:   552 TIME:   0.035 TIME LEFT:  2.00D  GRAD.:     0.799 HEAT: -351.5199
 CYCLE:   553 TIME:   0.027 TIME LEFT:  2.00D  GRAD.:     1.968 HEAT: -351.5167
 CYCLE:   554 TIME:   0.035 TIME LEFT:  2.00D  GRAD.:     0.736 HEAT: -351.5223
 CYCLE:   555 TIME:   0.035 TIME LEFT:  2.00D  GRAD.:     0.942 HEAT: -351.5203
 CYCLE:   556 TIME:   0.035 TIME LEFT:  2.00D  GRAD.:     0.643 HEAT: -351.5228
 CYCLE:   557 TIME:   0.031 TIME LEFT:  2.00D  GRAD.:     1.063 HEAT: -351.5186
 CYCLE:   558 TIME:   0.027 TIME LEFT:  2.00D  GRAD.:     0.753 HEAT: -351.5222
 CYCLE:   559 TIME:   0.027 TIME LEFT:  2.00D  GRAD.:     1.118 HEAT: -351.5184
 CYCLE:   560 TIME:   0.035 TIME LEFT:  2.00D  GRAD.:     0.713 HEAT: -351.5238
 CYCLE:   561 TIME:   0.035 TIME LEFT:  2.00D  GRAD.:     0.573 HEAT: -351.5239
 CYCLE:   562 TIME:   0.035 TIME LEFT:  2.00D  GRAD.:     0.728 HEAT: -351.5241
 CYCLE:   563 TIME:   0.035 TIME LEFT:  2.00D  GRAD.:     0.718 HEAT: -351.5243
 CYCLE:   564 TIME:   0.039 TIME LEFT:  2.00D  GRAD.:     1.542 HEAT: -351.5208
 CYCLE:   565 TIME:   0.039 TIME LEFT:  2.00D  GRAD.:     0.658 HEAT: -351.5243
 CYCLE:   566 TIME:   0.039 TIME LEFT:  2.00D  GRAD.:     0.718 HEAT: -351.5251
 CYCLE:   567 TIME:   0.031 TIME LEFT:  2.00D  GRAD.:     0.508 HEAT: -351.5257
 CYCLE:   568 TIME:   0.035 TIME LEFT:  2.00D  GRAD.:     0.567 HEAT: -351.5263
 CYCLE:   569 TIME:   0.062 TIME LEFT:  2.00D  GRAD.:     2.210 HEAT: -351.5245
 CYCLE:   570 TIME:   0.039 TIME LEFT:  2.00D  GRAD.:     0.965 HEAT: -351.5263
 CYCLE:   571 TIME:   0.031 TIME LEFT:  2.00D  GRAD.:     0.701 HEAT: -351.5273
 CYCLE:   572 TIME:   0.031 TIME LEFT:  2.00D  GRAD.:     0.847 HEAT: -351.5278
 CYCLE:   573 TIME:   0.027 TIME LEFT:  2.00D  GRAD.:     0.830 HEAT: -351.5284
 CYCLE:   574 TIME:   0.027 TIME LEFT:  2.00D  GRAD.:     0.786 HEAT: -351.5280
 CYCLE:   575 TIME:   0.031 TIME LEFT:  2.00D  GRAD.:     1.024 HEAT: -351.5295
 CYCLE:   576 TIME:   0.027 TIME LEFT:  2.00D  GRAD.:     0.797 HEAT: -351.5303
 CYCLE:   577 TIME:   0.031 TIME LEFT:  2.00D  GRAD.:     0.859 HEAT: -351.5323
 CYCLE:   578 TIME:   0.027 TIME LEFT:  2.00D  GRAD.:     1.702 HEAT: -351.5323
 CYCLE:   579 TIME:   0.027 TIME LEFT:  2.00D  GRAD.:     1.898 HEAT: -351.5333
 CYCLE:   580 TIME:   0.035 TIME LEFT:  2.00D  GRAD.:     1.123 HEAT: -351.5355
 CYCLE:   581 TIME:   0.031 TIME LEFT:  2.00D  GRAD.:     0.555 HEAT: -351.5360
 CYCLE:   582 TIME:   0.031 TIME LEFT:  2.00D  GRAD.:     0.405 HEAT: -351.5363
 CYCLE:   583 TIME:   0.035 TIME LEFT:  2.00D  GRAD.:     0.853 HEAT: -351.5360
 CYCLE:   584 TIME:   0.027 TIME LEFT:  2.00D  GRAD.:     0.796 HEAT: -351.5366
 CYCLE:   585 TIME:   0.031 TIME LEFT:  2.00D  GRAD.:     0.664 HEAT: -351.5362
 CYCLE:   586 TIME:   0.035 TIME LEFT:  2.00D  GRAD.:     0.399 HEAT: -351.5367
 CYCLE:   587 TIME:   0.035 TIME LEFT:  2.00D  GRAD.:     0.899 HEAT: -351.5362
 CYCLE:   588 TIME:   0.027 TIME LEFT:  2.00D  GRAD.:     0.363 HEAT: -351.5370
 CYCLE:   589 TIME:   0.035 TIME LEFT:  2.00D  GRAD.:     0.332 HEAT: -351.5371
 CYCLE:   590 TIME:   0.031 TIME LEFT:  2.00D  GRAD.:     0.894 HEAT: -351.5335
 CYCLE:   591 TIME:   0.035 TIME LEFT:  2.00D  GRAD.:     0.692 HEAT: -351.5365
 CYCLE:   592 TIME:   0.027 TIME LEFT:  2.00D  GRAD.:     0.896 HEAT: -351.5335
 CYCLE:   593 TIME:   0.027 TIME LEFT:  2.00D  GRAD.:     0.493 HEAT: -351.5362
 CYCLE:   594 TIME:   0.027 TIME LEFT:  2.00D  GRAD.:     0.889 HEAT: -351.5344
 CYCLE:   595 TIME:   0.027 TIME LEFT:  2.00D  GRAD.:     0.325 HEAT: -351.5371
 CYCLE:   596 TIME:   0.031 TIME LEFT:  2.00D  GRAD.:     0.686 HEAT: -351.5371
 CYCLE:   597 TIME:   0.039 TIME LEFT:  2.00D  GRAD.:     0.305 HEAT: -351.5372
 CYCLE:   598 TIME:   0.035 TIME LEFT:  2.00D  GRAD.:     0.296 HEAT: -351.5373
 CYCLE:   599 TIME:   0.035 TIME LEFT:  2.00D  GRAD.:     0.979 HEAT: -351.5306
 CYCLE:   600 TIME:   0.035 TIME LEFT:  2.00D  GRAD.:     0.705 HEAT: -351.5362
 CYCLE:   601 TIME:   0.031 TIME LEFT:  2.00D  GRAD.:     1.201 HEAT: -351.5317
 CYCLE:   602 TIME:   0.039 TIME LEFT:  2.00D  GRAD.:     0.445 HEAT: -351.5360
 CYCLE:   603 TIME:   0.035 TIME LEFT:  2.00D  GRAD.:     0.777 HEAT: -351.5345
 CYCLE:   604 TIME:   0.031 TIME LEFT:  2.00D  GRAD.:     0.302 HEAT: -351.5371
 CYCLE:   605 TIME:   0.031 TIME LEFT:  2.00D  GRAD.:     0.685 HEAT: -351.5372
 CYCLE:   606 TIME:   0.027 TIME LEFT:  2.00D  GRAD.:     0.290 HEAT: -351.5372
 CYCLE:   607 TIME:   0.027 TIME LEFT:  2.00D  GRAD.:     0.279 HEAT: -351.5373
 CYCLE:   608 TIME:   0.031 TIME LEFT:  2.00D  GRAD.:     0.996 HEAT: -351.5301
 CYCLE:   609 TIME:   0.027 TIME LEFT:  2.00D  GRAD.:     0.707 HEAT: -351.5363
 CYCLE:   610 TIME:   0.031 TIME LEFT:  2.00D  GRAD.:     1.334 HEAT: -351.5318
 CYCLE:   611 TIME:   0.031 TIME LEFT:  2.00D  GRAD.:     0.449 HEAT: -351.5359
 CYCLE:   612 TIME:   0.035 TIME LEFT:  2.00D  GRAD.:     0.819 HEAT: -351.5345
 CYCLE:   613 TIME:   0.043 TIME LEFT:  2.00D  GRAD.:     0.302 HEAT: -351.5370
 CYCLE:   614 TIME:   0.035 TIME LEFT:  2.00D  GRAD.:     0.213 HEAT: -351.5374
 CYCLE:   615 TIME:   0.027 TIME LEFT:  2.00D  GRAD.:     0.272 HEAT: -351.5373
 CYCLE:   616 TIME:   0.031 TIME LEFT:  2.00D  GRAD.:     0.268 HEAT: -351.5373
 CYCLE:   617 TIME:   0.035 TIME LEFT:  2.00D  GRAD.:     1.099 HEAT: -351.5289
 CYCLE:   618 TIME:   0.039 TIME LEFT:  2.00D  GRAD.:     0.706 HEAT: -351.5361
 CYCLE:   619 TIME:   0.035 TIME LEFT:  2.00D  GRAD.:     1.080 HEAT: -351.5310
 CYCLE:   620 TIME:   0.031 TIME LEFT:  2.00D  GRAD.:     0.456 HEAT: -351.5355
 CYCLE:   621 TIME:   0.027 TIME LEFT:  2.00D  GRAD.:     0.913 HEAT: -351.5331
 CYCLE:   622 TIME:   0.031 TIME LEFT:  2.00D  GRAD.:     0.307 HEAT: -351.5369
 CYCLE:   623 TIME:   0.039 TIME LEFT:  2.00D  GRAD.:     0.683 HEAT: -351.5373
 CYCLE:   624 TIME:   0.035 TIME LEFT:  2.00D  GRAD.:     0.278 HEAT: -351.5371
 CYCLE:   625 TIME:   0.039 TIME LEFT:  2.00D  GRAD.:     0.273 HEAT: -351.5372
 CYCLE:   626 TIME:   0.031 TIME LEFT:  2.00D  GRAD.:     1.239 HEAT: -351.5275
 CYCLE:   627 TIME:   0.035 TIME LEFT:  2.00D  GRAD.:     0.705 HEAT: -351.5363
 CYCLE:   628 TIME:   0.039 TIME LEFT:  2.00D  GRAD.:     1.003 HEAT: -351.5308
 CYCLE:   629 TIME:   0.035 TIME LEFT:  2.00D  GRAD.:     0.453 HEAT: -351.5353
 CYCLE:   630 TIME:   0.031 TIME LEFT:  2.00D  GRAD.:     0.899 HEAT: -351.5327
 CYCLE:   631 TIME:   0.031 TIME LEFT:  2.00D  GRAD.:     0.304 HEAT: -351.5368


 HEAT OF FORMATION IS ESSENTIALLY STATIONARY

 -------------------------------------------------------------------------------
 PRECISE LARGE CHARGE=1 SINGLET PM7
 Na(+) + 7H2O



     GEOMETRY OPTIMISED USING EIGENVECTOR FOLLOWING (EF).     
     SCF FIELD WAS ACHIEVED                                   


                              PM7 CALCULATION
                                                       MOPAC v22.1.0 Windows
                                                       Mon Jan 29 12:03:43 2024




          FINAL HEAT OF FORMATION =       -351.53677 KCAL/MOL =   -1470.82984 KJ/MOL


          COSMO AREA              =        210.41 SQUARE ANGSTROMS
          COSMO VOLUME            =        211.04 CUBIC ANGSTROMS

          GRADIENT NORM           =          0.30360          =       0.06473 PER ATOM
          IONIZATION POTENTIAL    =         15.528024 EV
          HOMO LUMO ENERGIES (EV) =        -15.528 -0.742
          NO. OF FILLED LEVELS    =         28
          MOLECULAR WEIGHT        =        149.0962         POINT GROUP:  C1  

          MOLECULAR DIMENSIONS (Angstroms)

            Atom       Atom       Distance
            H    11    H     8     9.15437
            H    16    H    19     5.96335
            H     7    H    22     4.65236


          SCF CALCULATIONS        =        678
 
          WALL-CLOCK TIME         =     23.105 SECONDS
          COMPUTATION TIME        =     42.031 SECONDS




   ATOM   CHEMICAL          X               Y               Z
  NUMBER   SYMBOL      (ANGSTROMS)     (ANGSTROMS)     (ANGSTROMS)
 
     1      Na         -1.80101336  *   1.56040912  *   2.19313525  *
     2       H         -2.47695735  *  -1.47321940  *   1.73901854  *
     3       O         -2.42332377  *  -0.67669623  *   1.19341123  *
     4       H         -2.29405766  *  -0.97519796  *   0.29508472  *
     5       H          0.51676201  *   0.51015721  *   3.75365418  *
     6       O          0.52083549  *   1.08702849  *   2.96836167  *
     7       H          1.37076945  *   0.97281585  *   2.55086088  *
     8       H         -0.54473597  *  -3.69691179  *   4.73840774  *
     9       O         -0.49351802  *  -2.91166390  *   4.19803924  *
    10       H         -1.27031806  *  -2.89845796  *   3.63493699  *
    11       H         -1.92387043  *   4.49194319  *   0.88573562  *
    12       O         -2.44068188  *   3.68235551  *   0.94018709  *
    13       H         -3.24790246  *   3.85546569  *   0.44774662  *
    14       H         -3.52139915  *  -2.76897357  *   3.20345670  *
    15       O         -2.71529170  *  -2.89531496  *   2.68272086  *
    16       H         -2.85285856  *  -3.71391188  *   2.18595748  *
    17       H         -0.08129591  *  -1.38500263  *   4.79884321  *
    18       O          0.12527995  *  -0.47567701  *   5.11211786  *
    19       H          0.69375964  *  -0.56755770  *   5.87549124  *
    20       H         -1.32288205  *   0.44294953  *   4.92876353  *
    21       O         -2.06660247  *   0.99443493  *   4.62479862  *
    22       H         -2.29182722  *   1.55885793  *   5.36357766  *

                             CARTESIAN COORDINATES

   1   Na       -1.801013360     1.560409121     2.193135246
   2    H       -2.476957352    -1.473219400     1.739018538
   3    O       -2.423323774    -0.676696233     1.193411233
   4    H       -2.294057657    -0.975197965     0.295084723
   5    H        0.516762008     0.510157210     3.753654181
   6    O        0.520835493     1.087028489     2.968361675
   7    H        1.370769450     0.972815850     2.550860880
   8    H       -0.544735970    -3.696911793     4.738407739
   9    O       -0.493518016    -2.911663897     4.198039236
  10    H       -1.270318064    -2.898457963     3.634936993
  11    H       -1.923870427     4.491943193     0.885735622
  12    O       -2.440681882     3.682355508     0.940187090
  13    H       -3.247902464     3.855465686     0.447746619
  14    H       -3.521399146    -2.768973567     3.203456699
  15    O       -2.715291696    -2.895314963     2.682720856
  16    H       -2.852858564    -3.713911876     2.185957483
  17    H       -0.081295911    -1.385002627     4.798843207
  18    O        0.125279954    -0.475677010     5.112117859
  19    H        0.693759641    -0.567557702     5.875491239
  20    H       -1.322882047     0.442949531     4.928763528
  21    O       -2.066602472     0.994434930     4.624798617
  22    H       -2.291827224     1.558857929     5.363577662


           Empirical Formula: H14 O7 Na  =    22 atoms



      MOLECULAR POINT GROUP   :   C1  


                  EIGENVALUES  
 -33.89058 -33.17662 -33.09243 -32.66299 -32.49624 -32.27197 -32.01865 -22.06596
 -21.72262 -21.68416 -21.49486 -21.31616 -21.11077 -20.84330 -18.85132 -18.56149
 -18.45866 -18.14501 -17.88258 -17.68183 -17.14414 -16.36895 -16.23793 -15.92757
 -15.80167 -15.68668 -15.63178 -15.52802  -0.74197  -0.37044  -0.03319   0.34021
   0.77914   0.95621   0.99418   1.73556   2.19988   2.71085   2.77608   2.97843
   3.17756   3.30431   3.48726   3.57494   3.57733   3.64923


              NET ATOMIC CHARGES AND DIPOLE CONTRIBUTIONS

  ATOM NO.   TYPE          CHARGE      No. of ELECS.   s-Pop       p-Pop       
    1         Na           0.855180        0.1448     0.01818     0.12664
    2          H           0.389496        0.6105     0.61050
    3          O          -0.747868        6.7479     1.78640     4.96147
    4          H           0.370594        0.6294     0.62941
    5          H           0.395206        0.6048     0.60479
    6          O          -0.752505        6.7525     1.78591     4.96659
    7          H           0.374005        0.6260     0.62600
    8          H           0.361809        0.6382     0.63819
    9          O          -0.726922        6.7269     1.79471     4.93222
   10          H           0.373659        0.6263     0.62634
   11          H           0.379947        0.6201     0.62005
   12          O          -0.728120        6.7281     1.78699     4.94113
   13          H           0.379192        0.6208     0.62081
   14          H           0.370233        0.6298     0.62977
   15          O          -0.698712        6.6987     1.80572     4.89299
   16          H           0.369868        0.6301     0.63013
   17          H           0.404210        0.5958     0.59579
   18          O          -0.762306        6.7623     1.79832     4.96398
   19          H           0.375101        0.6249     0.62490
   20          H           0.391623        0.6084     0.60838
   21          O          -0.743451        6.7435     1.79238     4.95107
   22          H           0.369761        0.6302     0.63024
 DIPOLE           X         Y         Z       TOTAL
 POINT-CHG.    -2.155    -0.064    -1.493     2.623
 HYBRID        -0.092    -0.744     0.194     0.775
 SUM           -2.247    -0.809    -1.299     2.718


          ATOMIC ORBITAL ELECTRON POPULATIONS

     Atom    s        px        py        pz   
    1 Na   0.01818   0.03565   0.04448   0.04652
    2  H   0.61050
    3  O   1.78640   1.98462   1.55582   1.42103
    4  H   0.62941
    5  H   0.60479
    6  O   1.78591   1.55722   1.79999   1.60938
    7  H   0.62600
    8  H   0.63819
    9  O   1.79471   1.64010   1.60883   1.68329
   10  H   0.62634
   11  H   0.62005
   12  O   1.78699   1.52187   1.57078   1.84849
   13  H   0.62081
   14  H   0.62977
   15  O   1.80572   1.57514   1.59822   1.71963
   16  H   0.63013
   17  H   0.59579
   18  O   1.79832   1.78614   1.55042   1.62743
   19  H   0.62490
   20  H   0.60838
   21  O   1.79238   1.68867   1.68386   1.57854
   22  H   0.63024

 **********************
 *                    *
 * JOB ENDED NORMALLY *
 *                    *
 **********************



 TOTAL JOB TIME:            23.11 SECONDS

 == MOPAC DONE ==
