 *******************************************************************************
 **                                                                           **
 **                              MOPAC v22.1.0                                **
 **                                                                           **
 *******************************************************************************
 **          Digital Object Identifier (DOI): 10.5281/zenodo.6511958          **
 **    Visit the DOI location for information on how to cite this program.    **
 *******************************************************************************

                              PM7 CALCULATION RESULTS

 *******************************************************************************
 *  CALCULATION DONE:                                Mon Jan 29 11:59:51 2024  *
 *  PM7        - The PM7 Hamiltonian to be used
 *  SINGLET    - SPIN STATE DEFINED AS A SINGLET
 *
 *
 *
 *                 CHARGE ON SYSTEM = +1
 *
 *
 *
 *  PRECISE    - TIGHTER CRITERIA TO BE USED
 *  T=         - A TIME OF 172800.0 SECONDS REQUESTED
 *  DUMP=N     - RESTART FILE WRITTEN EVERY 7200.0 SECONDS REQUESTED
 *  LARGE      - EXPANDED OUTPUT TO BE PRINTED
 *******************************************************************************
 PRECISE LARGE CHARGE=1 SINGLET  PM7
 Na(+) + 4H2O

   ATOM   CHEMICAL          X               Y               Z
  NUMBER   SYMBOL      (ANGSTROMS)     (ANGSTROMS)     (ANGSTROMS)
 
     1      Na         -1.26920000  *   0.03969000  *   2.38633000  *
     2       H         -3.32504000  *  -1.54779000  *   1.08943000  *
     3       O         -3.56890000  *  -0.74665000  *   0.56094000  *
     4       H         -4.48135000  *  -0.93783000  *   0.22714000  *
     5       H          0.12337000  *   0.55104000  *   4.84445000  *
     6       O          0.47573000  *   1.42740000  *   4.54703000  *
     7       H         -0.33071000  *   1.95343000  *   4.31558000  *
     8       H         -0.68405000  *  -3.33083000  *   4.12594000  *
     9       O         -0.22962000  *  -2.62563000  *   3.59972000  *
    10       H         -0.95365000  *  -1.99922000  *   3.34696000  *
    11       H         -3.37963000  *   2.49112000  *   1.92519000  *
    12       O         -2.92523000  *   3.19632000  *   1.39899000  *
    13       H         -3.64933000  *   3.82272000  *   1.14629000  *
 


          CARTESIAN COORDINATES 

    NO.       ATOM           X           Y           Z

     1        Na         -1.2692      0.0397      2.3863
     2         H         -3.3250     -1.5478      1.0894
     3         O         -3.5689     -0.7467      0.5609
     4         H         -4.4813     -0.9378      0.2271
     5         H          0.1234      0.5510      4.8445
     6         O          0.4757      1.4274      4.5470
     7         H         -0.3307      1.9534      4.3156
     8         H         -0.6841     -3.3308      4.1259
     9         O         -0.2296     -2.6256      3.5997
    10         H         -0.9537     -1.9992      3.3470
    11         H         -3.3796      2.4911      1.9252
    12         O         -2.9252      3.1963      1.3990
    13         H         -3.6493      3.8227      1.1463

 General Reference for PM7:
 "Optimization of Parameters for Semiempirical Methods VI: More Modifications to the 
 NDDO Approximations and Re-optimization of Parameters", J. J. P. Stewart, J. Mol. Mod., 1:32, 19 (2013)
 https://link.springer.com/article/10.1007/s00894-012-1667-x

           Empirical Formula: H8 O4 Na  =    13 atoms



      MOLECULAR POINT GROUP   :   C1  


 SINGLET STATE CALCULATION


      RHF CALCULATION, NO. OF DOUBLY OCCUPIED LEVELS = 16


          Geometry optimization using EF

          DIAGONAL MATRIX USED AS START HESSIAN

 CYCLE:     1 TIME:   0.109 TIME LEFT:  2.00D  GRAD.:    93.492 HEAT: -62.00098
 CYCLE:     2 TIME:   0.039 TIME LEFT:  2.00D  GRAD.:   100.333 HEAT: -67.65659
 CYCLE:     3 TIME:   0.043 TIME LEFT:  2.00D  GRAD.:    68.573 HEAT: -76.37610
 CYCLE:     4 TIME:   0.016 TIME LEFT:  2.00D  GRAD.:    77.092 HEAT: -85.55807
 CYCLE:     5 TIME:   0.012 TIME LEFT:  2.00D  GRAD.:   133.529 HEAT: -89.11254
 CYCLE:     6 TIME:   0.016 TIME LEFT:  2.00D  GRAD.:   104.444 HEAT: -97.00608
 CYCLE:     7 TIME:   0.008 TIME LEFT:  2.00D  GRAD.:   101.928 HEAT: -101.3368
 CYCLE:     8 TIME:   0.012 TIME LEFT:  2.00D  GRAD.:    47.698 HEAT: -106.2999
 CYCLE:     9 TIME:   0.012 TIME LEFT:  2.00D  GRAD.:    45.688 HEAT: -107.7087
 CYCLE:    10 TIME:   0.012 TIME LEFT:  2.00D  GRAD.:    41.169 HEAT: -109.9254
 CYCLE:    11 TIME:   0.012 TIME LEFT:  2.00D  GRAD.:    51.336 HEAT: -112.8041
 CYCLE:    12 TIME:   0.012 TIME LEFT:  2.00D  GRAD.:    51.981 HEAT: -114.7697
 CYCLE:    13 TIME:   0.012 TIME LEFT:  2.00D  GRAD.:    40.153 HEAT: -117.8065
 CYCLE:    14 TIME:   0.016 TIME LEFT:  2.00D  GRAD.:    60.462 HEAT: -119.4156
 CYCLE:    15 TIME:   0.012 TIME LEFT:  2.00D  GRAD.:    33.258 HEAT: -121.1517
 CYCLE:    16 TIME:   0.012 TIME LEFT:  2.00D  GRAD.:    23.808 HEAT: -121.9900
 CYCLE:    17 TIME:   0.012 TIME LEFT:  2.00D  GRAD.:    25.526 HEAT: -122.7381
 CYCLE:    18 TIME:   0.012 TIME LEFT:  2.00D  GRAD.:    44.967 HEAT: -123.5594
 CYCLE:    19 TIME:   0.016 TIME LEFT:  2.00D  GRAD.:    23.420 HEAT: -124.8922
 CYCLE:    20 TIME:   0.008 TIME LEFT:  2.00D  GRAD.:    20.666 HEAT: -125.8981
 CYCLE:    21 TIME:   0.012 TIME LEFT:  2.00D  GRAD.:    22.431 HEAT: -127.1986
 CYCLE:    22 TIME:   0.012 TIME LEFT:  2.00D  GRAD.:    18.203 HEAT: -127.5383
 CYCLE:    23 TIME:   0.012 TIME LEFT:  2.00D  GRAD.:    16.156 HEAT: -127.7906
 CYCLE:    24 TIME:   0.008 TIME LEFT:  2.00D  GRAD.:    14.531 HEAT: -128.1478
 CYCLE:    25 TIME:   0.012 TIME LEFT:  2.00D  GRAD.:    17.463 HEAT: -128.7841
 CYCLE:    26 TIME:   0.012 TIME LEFT:  2.00D  GRAD.:    16.159 HEAT: -129.3044
 CYCLE:    27 TIME:   0.008 TIME LEFT:  2.00D  GRAD.:    11.801 HEAT: -129.6350
 CYCLE:    28 TIME:   0.012 TIME LEFT:  2.00D  GRAD.:    14.199 HEAT: -129.8231
 CYCLE:    29 TIME:   0.012 TIME LEFT:  2.00D  GRAD.:    15.146 HEAT: -129.9335
 CYCLE:    30 TIME:   0.012 TIME LEFT:  2.00D  GRAD.:    12.062 HEAT: -130.1526
 CYCLE:    31 TIME:   0.008 TIME LEFT:  2.00D  GRAD.:    14.314 HEAT: -130.4648
 CYCLE:    32 TIME:   0.016 TIME LEFT:  2.00D  GRAD.:    13.035 HEAT: -130.6960
 CYCLE:    33 TIME:   0.008 TIME LEFT:  2.00D  GRAD.:    15.756 HEAT: -130.9974
 CYCLE:    34 TIME:   0.012 TIME LEFT:  2.00D  GRAD.:    12.706 HEAT: -131.2480
 CYCLE:    35 TIME:   0.012 TIME LEFT:  2.00D  GRAD.:    17.952 HEAT: -131.4321
 CYCLE:    36 TIME:   0.016 TIME LEFT:  2.00D  GRAD.:     7.017 HEAT: -131.6443
 CYCLE:    37 TIME:   0.008 TIME LEFT:  2.00D  GRAD.:     7.800 HEAT: -131.7773
 CYCLE:    38 TIME:   0.012 TIME LEFT:  2.00D  GRAD.:     9.939 HEAT: -132.0219
 CYCLE:    39 TIME:   0.012 TIME LEFT:  2.00D  GRAD.:    12.148 HEAT: -132.1881
 CYCLE:    40 TIME:   0.008 TIME LEFT:  2.00D  GRAD.:    14.342 HEAT: -132.5650
 CYCLE:    41 TIME:   0.012 TIME LEFT:  2.00D  GRAD.:    12.491 HEAT: -132.7748
 CYCLE:    42 TIME:   0.016 TIME LEFT:  2.00D  GRAD.:     8.027 HEAT: -132.9378
 CYCLE:    43 TIME:   0.008 TIME LEFT:  2.00D  GRAD.:     6.740 HEAT: -133.0627
 CYCLE:    44 TIME:   0.012 TIME LEFT:  2.00D  GRAD.:    11.104 HEAT: -133.2909
 CYCLE:    45 TIME:   0.012 TIME LEFT:  2.00D  GRAD.:    11.918 HEAT: -133.4445
 CYCLE:    46 TIME:   0.012 TIME LEFT:  2.00D  GRAD.:    16.549 HEAT: -133.8209
 CYCLE:    47 TIME:   0.016 TIME LEFT:  2.00D  GRAD.:     9.007 HEAT: -134.0209
 CYCLE:    48 TIME:   0.012 TIME LEFT:  2.00D  GRAD.:     8.157 HEAT: -134.1296
 CYCLE:    49 TIME:   0.012 TIME LEFT:  2.00D  GRAD.:     7.915 HEAT: -134.2248
 CYCLE:    50 TIME:   0.012 TIME LEFT:  2.00D  GRAD.:     9.205 HEAT: -134.3433
 CYCLE:    51 TIME:   0.012 TIME LEFT:  2.00D  GRAD.:     6.696 HEAT: -134.4961
 CYCLE:    52 TIME:   0.016 TIME LEFT:  2.00D  GRAD.:     6.148 HEAT: -134.6056
 CYCLE:    53 TIME:   0.035 TIME LEFT:  2.00D  GRAD.:     5.350 HEAT: -134.6630
 CYCLE:    54 TIME:   0.020 TIME LEFT:  2.00D  GRAD.:     4.201 HEAT: -134.6885
 CYCLE:    55 TIME:   0.020 TIME LEFT:  2.00D  GRAD.:     3.281 HEAT: -134.7173
 CYCLE:    56 TIME:   0.012 TIME LEFT:  2.00D  GRAD.:     3.036 HEAT: -134.7413
 CYCLE:    57 TIME:   0.016 TIME LEFT:  2.00D  GRAD.:     3.540 HEAT: -134.7596
 CYCLE:    58 TIME:   0.012 TIME LEFT:  2.00D  GRAD.:     3.171 HEAT: -134.7782
 CYCLE:    59 TIME:   0.016 TIME LEFT:  2.00D  GRAD.:     2.244 HEAT: -134.7924
 CYCLE:    60 TIME:   0.016 TIME LEFT:  2.00D  GRAD.:     1.423 HEAT: -134.7998
 CYCLE:    61 TIME:   0.008 TIME LEFT:  2.00D  GRAD.:     1.300 HEAT: -134.8039
 CYCLE:    62 TIME:   0.012 TIME LEFT:  2.00D  GRAD.:     1.474 HEAT: -134.8075
 CYCLE:    63 TIME:   0.012 TIME LEFT:  2.00D  GRAD.:     1.764 HEAT: -134.8124
 CYCLE:    64 TIME:   0.016 TIME LEFT:  2.00D  GRAD.:     2.146 HEAT: -134.8191
 CYCLE:    65 TIME:   0.016 TIME LEFT:  2.00D  GRAD.:     2.282 HEAT: -134.8272
 CYCLE:    66 TIME:   0.012 TIME LEFT:  2.00D  GRAD.:     2.719 HEAT: -134.8365
 CYCLE:    67 TIME:   0.012 TIME LEFT:  2.00D  GRAD.:     1.791 HEAT: -134.8420
 CYCLE:    68 TIME:   0.012 TIME LEFT:  2.00D  GRAD.:     1.480 HEAT: -134.8496
 CYCLE:    69 TIME:   0.012 TIME LEFT:  2.00D  GRAD.:     1.641 HEAT: -134.8560
 CYCLE:    70 TIME:   0.012 TIME LEFT:  2.00D  GRAD.:     1.894 HEAT: -134.8630
 CYCLE:    71 TIME:   0.012 TIME LEFT:  2.00D  GRAD.:     1.829 HEAT: -134.8698
 CYCLE:    72 TIME:   0.008 TIME LEFT:  2.00D  GRAD.:     1.772 HEAT: -134.8763
 CYCLE:    73 TIME:   0.012 TIME LEFT:  2.00D  GRAD.:     2.975 HEAT: -134.8824
 CYCLE:    74 TIME:   0.012 TIME LEFT:  2.00D  GRAD.:     1.648 HEAT: -134.8875
 CYCLE:    75 TIME:   0.008 TIME LEFT:  2.00D  GRAD.:     0.979 HEAT: -134.8920
 CYCLE:    76 TIME:   0.012 TIME LEFT:  2.00D  GRAD.:     1.071 HEAT: -134.8946
 CYCLE:    77 TIME:   0.012 TIME LEFT:  2.00D  GRAD.:     1.056 HEAT: -134.8961
 CYCLE:    78 TIME:   0.012 TIME LEFT:  2.00D  GRAD.:     1.123 HEAT: -134.8996
 CYCLE:    79 TIME:   0.012 TIME LEFT:  2.00D  GRAD.:     1.145 HEAT: -134.9023
 CYCLE:    80 TIME:   0.008 TIME LEFT:  2.00D  GRAD.:     0.925 HEAT: -134.9044
 CYCLE:    81 TIME:   0.012 TIME LEFT:  2.00D  GRAD.:     0.835 HEAT: -134.9059
 CYCLE:    82 TIME:   0.012 TIME LEFT:  2.00D  GRAD.:     0.895 HEAT: -134.9073
 CYCLE:    83 TIME:   0.012 TIME LEFT:  2.00D  GRAD.:     1.033 HEAT: -134.9097
 CYCLE:    84 TIME:   0.008 TIME LEFT:  2.00D  GRAD.:     1.380 HEAT: -134.9146
 CYCLE:    85 TIME:   0.012 TIME LEFT:  2.00D  GRAD.:     1.116 HEAT: -134.9182
 CYCLE:    86 TIME:   0.016 TIME LEFT:  2.00D  GRAD.:     0.766 HEAT: -134.9220
 CYCLE:    87 TIME:   0.012 TIME LEFT:  2.00D  GRAD.:     0.743 HEAT: -134.9226
 CYCLE:    88 TIME:   0.008 TIME LEFT:  2.00D  GRAD.:     0.622 HEAT: -134.9238
 CYCLE:    89 TIME:   0.012 TIME LEFT:  2.00D  GRAD.:     0.918 HEAT: -134.9251
 CYCLE:    90 TIME:   0.012 TIME LEFT:  2.00D  GRAD.:     1.119 HEAT: -134.9276
 CYCLE:    91 TIME:   0.012 TIME LEFT:  2.00D  GRAD.:     0.782 HEAT: -134.9291
 CYCLE:    92 TIME:   0.012 TIME LEFT:  2.00D  GRAD.:     0.797 HEAT: -134.9309
 CYCLE:    93 TIME:   0.012 TIME LEFT:  2.00D  GRAD.:     0.363 HEAT: -134.9314
 CYCLE:    94 TIME:   0.012 TIME LEFT:  2.00D  GRAD.:     0.178 HEAT: -134.9317
 CYCLE:    95 TIME:   0.016 TIME LEFT:  2.00D  GRAD.:     0.194 HEAT: -134.9318
 CYCLE:    96 TIME:   0.008 TIME LEFT:  2.00D  GRAD.:     0.289 HEAT: -134.9320
 CYCLE:    97 TIME:   0.012 TIME LEFT:  2.00D  GRAD.:     0.372 HEAT: -134.9324
 CYCLE:    98 TIME:   0.012 TIME LEFT:  2.00D  GRAD.:     0.680 HEAT: -134.9339
 CYCLE:    99 TIME:   0.012 TIME LEFT:  2.00D  GRAD.:     0.956 HEAT: -134.9367
 CYCLE:   100 TIME:   0.012 TIME LEFT:  2.00D  GRAD.:     2.052 HEAT: -134.9357
 CYCLE:   101 TIME:   0.012 TIME LEFT:  2.00D  GRAD.:     1.058 HEAT: -134.9411
 CYCLE:   102 TIME:   0.012 TIME LEFT:  2.00D  GRAD.:     0.937 HEAT: -134.9425
 CYCLE:   103 TIME:   0.012 TIME LEFT:  2.00D  GRAD.:     4.754 HEAT: -134.9487
 CYCLE:   104 TIME:   0.008 TIME LEFT:  2.00D  GRAD.:     3.678 HEAT: -134.9607
 CYCLE:   105 TIME:   0.012 TIME LEFT:  2.00D  GRAD.:     3.926 HEAT: -134.9980
 CYCLE:   106 TIME:   0.074 TIME LEFT:  2.00D  GRAD.:     3.379 HEAT: -135.0008
 CYCLE:   107 TIME:   0.012 TIME LEFT:  2.00D  GRAD.:     1.758 HEAT: -135.0080
 CYCLE:   108 TIME:   0.012 TIME LEFT:  2.00D  GRAD.:     3.200 HEAT: -135.0619
 CYCLE:   109 TIME:   0.008 TIME LEFT:  2.00D  GRAD.:     2.631 HEAT: -135.0709
 CYCLE:   110 TIME:   0.012 TIME LEFT:  2.00D  GRAD.:     2.763 HEAT: -135.0781
 CYCLE:   111 TIME:   0.012 TIME LEFT:  2.00D  GRAD.:     2.002 HEAT: -135.0823
 CYCLE:   112 TIME:   0.012 TIME LEFT:  2.00D  GRAD.:     2.216 HEAT: -135.0878
 CYCLE:   113 TIME:   0.012 TIME LEFT:  2.00D  GRAD.:     2.389 HEAT: -135.0952
 CYCLE:   114 TIME:   0.008 TIME LEFT:  2.00D  GRAD.:     1.844 HEAT: -135.0990
 CYCLE:   115 TIME:   0.012 TIME LEFT:  2.00D  GRAD.:     1.817 HEAT: -135.1081
 CYCLE:   116 TIME:   0.012 TIME LEFT:  2.00D  GRAD.:     1.842 HEAT: -135.1155
 CYCLE:   117 TIME:   0.012 TIME LEFT:  2.00D  GRAD.:     2.018 HEAT: -135.1228
 CYCLE:   118 TIME:   0.008 TIME LEFT:  2.00D  GRAD.:     1.691 HEAT: -135.1267
 CYCLE:   119 TIME:   0.012 TIME LEFT:  2.00D  GRAD.:     2.550 HEAT: -135.1437
 CYCLE:   120 TIME:   0.012 TIME LEFT:  2.00D  GRAD.:     4.453 HEAT: -135.2994
 CYCLE:   121 TIME:   0.047 TIME LEFT:  2.00D  GRAD.:     7.157 HEAT: -135.3083
 CYCLE:   122 TIME:   0.016 TIME LEFT:  2.00D  GRAD.:     7.695 HEAT: -135.3141
 CYCLE:   123 TIME:   0.031 TIME LEFT:  2.00D  GRAD.:     5.999 HEAT: -135.3223
 CYCLE:   124 TIME:   0.012 TIME LEFT:  2.00D  GRAD.:     3.296 HEAT: -135.3382
 CYCLE:   125 TIME:   0.012 TIME LEFT:  2.00D  GRAD.:     2.176 HEAT: -135.3543
 CYCLE:   126 TIME:   0.012 TIME LEFT:  2.00D  GRAD.:     1.788 HEAT: -135.3665
 CYCLE:   127 TIME:   0.008 TIME LEFT:  2.00D  GRAD.:     1.820 HEAT: -135.4002
 CYCLE:   128 TIME:   0.016 TIME LEFT:  2.00D  GRAD.:     2.067 HEAT: -135.4308
 CYCLE:   129 TIME:   0.016 TIME LEFT:  2.00D  GRAD.:     2.187 HEAT: -135.5232
 CYCLE:   130 TIME:   0.012 TIME LEFT:  2.00D  GRAD.:     2.702 HEAT: -135.7156
 CYCLE:   131 TIME:   0.012 TIME LEFT:  2.00D  GRAD.:     2.976 HEAT: -135.8430
 CYCLE:   132 TIME:   0.012 TIME LEFT:  2.00D  GRAD.:     3.981 HEAT: -136.1089
 CYCLE:   133 TIME:   0.012 TIME LEFT:  2.00D  GRAD.:    12.050 HEAT: -136.5424
 CYCLE:   134 TIME:   0.012 TIME LEFT:  2.00D  GRAD.:    11.801 HEAT: -136.6287
 CYCLE:   135 TIME:   0.012 TIME LEFT:  2.00D  GRAD.:    11.565 HEAT: -136.6978
 CYCLE:   136 TIME:   0.012 TIME LEFT:  2.00D  GRAD.:    10.821 HEAT: -136.8337
 CYCLE:   137 TIME:   0.023 TIME LEFT:  2.00D  GRAD.:     8.702 HEAT: -136.9277
 CYCLE:   138 TIME:   0.012 TIME LEFT:  2.00D  GRAD.:     4.852 HEAT: -137.0854
 CYCLE:   139 TIME:   0.012 TIME LEFT:  2.00D  GRAD.:    10.471 HEAT: -137.2530
 CYCLE:   140 TIME:   0.016 TIME LEFT:  2.00D  GRAD.:    15.448 HEAT: -137.3416
 CYCLE:   141 TIME:   0.031 TIME LEFT:  2.00D  GRAD.:    14.710 HEAT: -137.3680
 CYCLE:   142 TIME:   0.012 TIME LEFT:  2.00D  GRAD.:    11.524 HEAT: -137.4541
 CYCLE:   143 TIME:   0.016 TIME LEFT:  2.00D  GRAD.:    13.703 HEAT: -137.4618
 CYCLE:   144 TIME:   0.012 TIME LEFT:  2.00D  GRAD.:     5.574 HEAT: -137.5378
 CYCLE:   145 TIME:   0.008 TIME LEFT:  2.00D  GRAD.:    10.101 HEAT: -137.5389
 CYCLE:   146 TIME:   0.012 TIME LEFT:  2.00D  GRAD.:     8.172 HEAT: -137.5550
 CYCLE:   147 TIME:   0.031 TIME LEFT:  2.00D  GRAD.:     8.147 HEAT: -137.5611
 CYCLE:   148 TIME:   0.008 TIME LEFT:  2.00D  GRAD.:     1.897 HEAT: -137.6029
 CYCLE:   149 TIME:   0.012 TIME LEFT:  2.00D  GRAD.:     2.336 HEAT: -137.6188
 CYCLE:   150 TIME:   0.012 TIME LEFT:  2.00D  GRAD.:     5.292 HEAT: -137.6318
 CYCLE:   151 TIME:   0.008 TIME LEFT:  2.00D  GRAD.:     3.465 HEAT: -137.6505
 CYCLE:   152 TIME:   0.027 TIME LEFT:  2.00D  GRAD.:     3.779 HEAT: -137.6532
 CYCLE:   153 TIME:   0.008 TIME LEFT:  2.00D  GRAD.:     1.144 HEAT: -137.6626
 CYCLE:   154 TIME:   0.012 TIME LEFT:  2.00D  GRAD.:     1.308 HEAT: -137.6659
 CYCLE:   155 TIME:   0.012 TIME LEFT:  2.00D  GRAD.:     0.944 HEAT: -137.6683
 CYCLE:   156 TIME:   0.008 TIME LEFT:  2.00D  GRAD.:     0.806 HEAT: -137.6696
 CYCLE:   157 TIME:   0.012 TIME LEFT:  2.00D  GRAD.:     0.762 HEAT: -137.6713
 CYCLE:   158 TIME:   0.008 TIME LEFT:  2.00D  GRAD.:     0.885 HEAT: -137.6741
 CYCLE:   159 TIME:   0.012 TIME LEFT:  2.00D  GRAD.:     1.280 HEAT: -137.6776
 CYCLE:   160 TIME:   0.012 TIME LEFT:  2.00D  GRAD.:     1.671 HEAT: -137.6814
 CYCLE:   161 TIME:   0.012 TIME LEFT:  2.00D  GRAD.:     1.631 HEAT: -137.6859
 CYCLE:   162 TIME:   0.012 TIME LEFT:  2.00D  GRAD.:     1.632 HEAT: -137.6897
 CYCLE:   163 TIME:   0.016 TIME LEFT:  2.00D  GRAD.:     1.192 HEAT: -137.6926
 CYCLE:   164 TIME:   0.012 TIME LEFT:  2.00D  GRAD.:     1.331 HEAT: -137.6938
 CYCLE:   165 TIME:   0.008 TIME LEFT:  2.00D  GRAD.:     0.635 HEAT: -137.6946
 CYCLE:   166 TIME:   0.012 TIME LEFT:  2.00D  GRAD.:     0.520 HEAT: -137.6954
 CYCLE:   167 TIME:   0.012 TIME LEFT:  2.00D  GRAD.:     0.508 HEAT: -137.6959
 CYCLE:   168 TIME:   0.016 TIME LEFT:  2.00D  GRAD.:     0.391 HEAT: -137.6962
 CYCLE:   169 TIME:   0.008 TIME LEFT:  2.00D  GRAD.:     0.287 HEAT: -137.6965
 CYCLE:   170 TIME:   0.012 TIME LEFT:  2.00D  GRAD.:     0.289 HEAT: -137.6967
 CYCLE:   171 TIME:   0.016 TIME LEFT:  2.00D  GRAD.:     0.330 HEAT: -137.6971
 CYCLE:   172 TIME:   0.012 TIME LEFT:  2.00D  GRAD.:     0.391 HEAT: -137.6978
 CYCLE:   173 TIME:   0.012 TIME LEFT:  2.00D  GRAD.:     0.707 HEAT: -137.6990
 CYCLE:   174 TIME:   0.012 TIME LEFT:  2.00D  GRAD.:     0.882 HEAT: -137.7006
 CYCLE:   175 TIME:   0.008 TIME LEFT:  2.00D  GRAD.:     2.299 HEAT: -137.7030
 CYCLE:   176 TIME:   0.012 TIME LEFT:  2.00D  GRAD.:     4.313 HEAT: -137.6939
 CYCLE:   177 TIME:   0.012 TIME LEFT:  2.00D  GRAD.:     0.951 HEAT: -137.7099
 CYCLE:   178 TIME:   0.012 TIME LEFT:  2.00D  GRAD.:     1.045 HEAT: -137.7138
 CYCLE:   179 TIME:   0.012 TIME LEFT:  2.00D  GRAD.:     1.383 HEAT: -137.7229
 CYCLE:   180 TIME:   0.012 TIME LEFT:  2.00D  GRAD.:     2.256 HEAT: -137.7285
 CYCLE:   181 TIME:   0.012 TIME LEFT:  2.00D  GRAD.:     2.214 HEAT: -137.7332
 CYCLE:   182 TIME:   0.012 TIME LEFT:  2.00D  GRAD.:     2.064 HEAT: -137.7426
 CYCLE:   183 TIME:   0.012 TIME LEFT:  2.00D  GRAD.:     1.318 HEAT: -137.7489
 CYCLE:   184 TIME:   0.012 TIME LEFT:  2.00D  GRAD.:     1.701 HEAT: -137.7539
 CYCLE:   185 TIME:   0.008 TIME LEFT:  2.00D  GRAD.:     2.966 HEAT: -137.7560
 CYCLE:   186 TIME:   0.012 TIME LEFT:  2.00D  GRAD.:     2.679 HEAT: -137.7605
 CYCLE:   187 TIME:   0.008 TIME LEFT:  2.00D  GRAD.:     2.464 HEAT: -137.7651
 CYCLE:   188 TIME:   0.012 TIME LEFT:  2.00D  GRAD.:     1.315 HEAT: -137.7717
 CYCLE:   189 TIME:   0.012 TIME LEFT:  2.00D  GRAD.:     1.267 HEAT: -137.7788
 CYCLE:   190 TIME:   0.012 TIME LEFT:  2.00D  GRAD.:     1.710 HEAT: -137.7826
 CYCLE:   191 TIME:   0.008 TIME LEFT:  2.00D  GRAD.:     1.242 HEAT: -137.7868
 CYCLE:   192 TIME:   0.016 TIME LEFT:  2.00D  GRAD.:     2.145 HEAT: -137.7875
 CYCLE:   193 TIME:   0.012 TIME LEFT:  2.00D  GRAD.:     1.874 HEAT: -137.7893
 CYCLE:   194 TIME:   0.008 TIME LEFT:  2.00D  GRAD.:     0.822 HEAT: -137.7911
 CYCLE:   195 TIME:   0.012 TIME LEFT:  2.00D  GRAD.:     0.439 HEAT: -137.7921
 CYCLE:   196 TIME:   0.012 TIME LEFT:  2.00D  GRAD.:     0.728 HEAT: -137.7927
 CYCLE:   197 TIME:   0.012 TIME LEFT:  2.00D  GRAD.:     0.660 HEAT: -137.7931
 CYCLE:   198 TIME:   0.012 TIME LEFT:  2.00D  GRAD.:     0.623 HEAT: -137.7937
 CYCLE:   199 TIME:   0.012 TIME LEFT:  2.00D  GRAD.:     1.006 HEAT: -137.7946
 CYCLE:   200 TIME:   0.008 TIME LEFT:  2.00D  GRAD.:     1.046 HEAT: -137.7966
 CYCLE:   201 TIME:   0.012 TIME LEFT:  2.00D  GRAD.:     1.164 HEAT: -137.8009
 CYCLE:   202 TIME:   0.008 TIME LEFT:  2.00D  GRAD.:     2.252 HEAT: -137.8092
 CYCLE:   203 TIME:   0.016 TIME LEFT:  2.00D  GRAD.:     2.169 HEAT: -137.8214
 CYCLE:   204 TIME:   0.012 TIME LEFT:  2.00D  GRAD.:     4.830 HEAT: -137.8383
 CYCLE:   205 TIME:   0.012 TIME LEFT:  2.00D  GRAD.:     3.562 HEAT: -137.8524
 CYCLE:   206 TIME:   0.008 TIME LEFT:  2.00D  GRAD.:     2.368 HEAT: -137.8617
 CYCLE:   207 TIME:   0.016 TIME LEFT:  2.00D  GRAD.:     2.547 HEAT: -137.8682
 CYCLE:   208 TIME:   0.012 TIME LEFT:  2.00D  GRAD.:     2.069 HEAT: -137.8745
 CYCLE:   209 TIME:   0.012 TIME LEFT:  2.00D  GRAD.:     2.068 HEAT: -137.8786
 CYCLE:   210 TIME:   0.012 TIME LEFT:  2.00D  GRAD.:     1.087 HEAT: -137.8824
 CYCLE:   211 TIME:   0.012 TIME LEFT:  2.00D  GRAD.:     1.133 HEAT: -137.8858
 CYCLE:   212 TIME:   0.012 TIME LEFT:  2.00D  GRAD.:     0.962 HEAT: -137.8890
 CYCLE:   213 TIME:   0.012 TIME LEFT:  2.00D  GRAD.:     1.031 HEAT: -137.8911
 CYCLE:   214 TIME:   0.012 TIME LEFT:  2.00D  GRAD.:     1.242 HEAT: -137.8955
 CYCLE:   215 TIME:   0.012 TIME LEFT:  2.00D  GRAD.:     2.372 HEAT: -137.8961
 CYCLE:   216 TIME:   0.012 TIME LEFT:  2.00D  GRAD.:     0.816 HEAT: -137.9013
 CYCLE:   217 TIME:   0.012 TIME LEFT:  2.00D  GRAD.:     0.674 HEAT: -137.9017
 CYCLE:   218 TIME:   0.012 TIME LEFT:  2.00D  GRAD.:     0.491 HEAT: -137.9023
 CYCLE:   219 TIME:   0.012 TIME LEFT:  2.00D  GRAD.:     0.545 HEAT: -137.9026
 CYCLE:   220 TIME:   0.008 TIME LEFT:  2.00D  GRAD.:     0.607 HEAT: -137.9031
 CYCLE:   221 TIME:   0.016 TIME LEFT:  2.00D  GRAD.:     0.599 HEAT: -137.9038
 CYCLE:   222 TIME:   0.008 TIME LEFT:  2.00D  GRAD.:     0.685 HEAT: -137.9047
 CYCLE:   223 TIME:   0.012 TIME LEFT:  2.00D  GRAD.:     0.701 HEAT: -137.9052
 CYCLE:   224 TIME:   0.008 TIME LEFT:  2.00D  GRAD.:     0.843 HEAT: -137.9064
 CYCLE:   225 TIME:   0.012 TIME LEFT:  2.00D  GRAD.:     0.961 HEAT: -137.9083
 CYCLE:   226 TIME:   0.016 TIME LEFT:  2.00D  GRAD.:     1.660 HEAT: -137.9151
 CYCLE:   227 TIME:   0.008 TIME LEFT:  2.00D  GRAD.:     2.069 HEAT: -137.9206
 CYCLE:   228 TIME:   0.012 TIME LEFT:  2.00D  GRAD.:     3.280 HEAT: -137.9495
 CYCLE:   229 TIME:   0.016 TIME LEFT:  2.00D  GRAD.:     6.575 HEAT: -137.9542
 CYCLE:   230 TIME:   0.012 TIME LEFT:  2.00D  GRAD.:     2.498 HEAT: -137.9762
 CYCLE:   231 TIME:   0.012 TIME LEFT:  2.00D  GRAD.:     3.101 HEAT: -137.9908
 CYCLE:   232 TIME:   0.012 TIME LEFT:  2.00D  GRAD.:     4.904 HEAT: -138.0293
 CYCLE:   233 TIME:   0.012 TIME LEFT:  2.00D  GRAD.:     5.069 HEAT: -138.0654
 CYCLE:   234 TIME:   0.012 TIME LEFT:  2.00D  GRAD.:     2.370 HEAT: -138.0931
 CYCLE:   235 TIME:   0.012 TIME LEFT:  2.00D  GRAD.:     7.406 HEAT: -138.3063
 CYCLE:   236 TIME:   0.066 TIME LEFT:  2.00D  GRAD.:     8.592 HEAT: -138.3064
 CYCLE:   237 TIME:   0.016 TIME LEFT:  2.00D  GRAD.:     1.932 HEAT: -138.3560
 CYCLE:   238 TIME:   0.008 TIME LEFT:  2.00D  GRAD.:     1.723 HEAT: -138.3877
 CYCLE:   239 TIME:   0.012 TIME LEFT:  2.00D  GRAD.:     1.859 HEAT: -138.4454
 CYCLE:   240 TIME:   0.012 TIME LEFT:  2.00D  GRAD.:     3.049 HEAT: -138.5570
 CYCLE:   241 TIME:   0.016 TIME LEFT:  2.00D  GRAD.:     5.797 HEAT: -138.7946
 CYCLE:   242 TIME:   0.031 TIME LEFT:  2.00D  GRAD.:    12.479 HEAT: -138.8444
 CYCLE:   243 TIME:   0.012 TIME LEFT:  2.00D  GRAD.:     8.109 HEAT: -138.9511
 CYCLE:   244 TIME:   0.043 TIME LEFT:  2.00D  GRAD.:     5.634 HEAT: -138.9844
 CYCLE:   245 TIME:   0.016 TIME LEFT:  2.00D  GRAD.:     1.891 HEAT: -139.0134
 CYCLE:   246 TIME:   0.012 TIME LEFT:  2.00D  GRAD.:     1.340 HEAT: -139.0328
 CYCLE:   247 TIME:   0.016 TIME LEFT:  2.00D  GRAD.:     3.427 HEAT: -139.0422
 CYCLE:   248 TIME:   0.008 TIME LEFT:  2.00D  GRAD.:     3.686 HEAT: -139.0443
 CYCLE:   249 TIME:   0.035 TIME LEFT:  2.00D  GRAD.:     2.553 HEAT: -139.0518
 CYCLE:   250 TIME:   0.023 TIME LEFT:  2.00D  GRAD.:     2.060 HEAT: -139.0546
 CYCLE:   251 TIME:   0.012 TIME LEFT:  2.00D  GRAD.:     2.845 HEAT: -139.0480
 CYCLE:   252 TIME:   0.031 TIME LEFT:  2.00D  GRAD.:     3.337 HEAT: -139.0524
 CYCLE:   253 TIME:   0.016 TIME LEFT:  2.00D  GRAD.:     1.215 HEAT: -139.0597
 CYCLE:   254 TIME:   0.012 TIME LEFT:  2.00D  GRAD.:     0.584 HEAT: -139.0608
 CYCLE:   255 TIME:   0.012 TIME LEFT:  2.00D  GRAD.:     0.377 HEAT: -139.0612
 CYCLE:   256 TIME:   0.008 TIME LEFT:  2.00D  GRAD.:     0.793 HEAT: -139.0612
 CYCLE:   257 TIME:   0.012 TIME LEFT:  2.00D  GRAD.:     0.472 HEAT: -139.0619
 CYCLE:   258 TIME:   0.016 TIME LEFT:  2.00D  GRAD.:     0.593 HEAT: -139.0624
 CYCLE:   259 TIME:   0.008 TIME LEFT:  2.00D  GRAD.:     0.520 HEAT: -139.0632
 CYCLE:   260 TIME:   0.012 TIME LEFT:  2.00D  GRAD.:     0.725 HEAT: -139.0648
 CYCLE:   261 TIME:   0.012 TIME LEFT:  2.00D  GRAD.:     0.768 HEAT: -139.0664
 CYCLE:   262 TIME:   0.012 TIME LEFT:  2.00D  GRAD.:     1.330 HEAT: -139.0696
 CYCLE:   263 TIME:   0.012 TIME LEFT:  2.00D  GRAD.:     1.658 HEAT: -139.0734
 CYCLE:   264 TIME:   0.016 TIME LEFT:  2.00D  GRAD.:     1.898 HEAT: -139.0772
 CYCLE:   265 TIME:   0.008 TIME LEFT:  2.00D  GRAD.:     2.157 HEAT: -139.0821
 CYCLE:   266 TIME:   0.012 TIME LEFT:  2.00D  GRAD.:     1.756 HEAT: -139.0870
 CYCLE:   267 TIME:   0.012 TIME LEFT:  2.00D  GRAD.:     2.586 HEAT: -139.1016
 CYCLE:   268 TIME:   0.012 TIME LEFT:  2.00D  GRAD.:     1.807 HEAT: -139.1093
 CYCLE:   269 TIME:   0.008 TIME LEFT:  2.00D  GRAD.:     2.010 HEAT: -139.1169
 CYCLE:   270 TIME:   0.012 TIME LEFT:  2.00D  GRAD.:     1.981 HEAT: -139.1249
 CYCLE:   271 TIME:   0.012 TIME LEFT:  2.00D  GRAD.:     1.364 HEAT: -139.1308
 CYCLE:   272 TIME:   0.012 TIME LEFT:  2.00D  GRAD.:     2.259 HEAT: -139.1319
 CYCLE:   273 TIME:   0.012 TIME LEFT:  2.00D  GRAD.:     0.664 HEAT: -139.1351
 CYCLE:   274 TIME:   0.012 TIME LEFT:  2.00D  GRAD.:     0.790 HEAT: -139.1357
 CYCLE:   275 TIME:   0.012 TIME LEFT:  2.00D  GRAD.:     0.601 HEAT: -139.1363
 CYCLE:   276 TIME:   0.008 TIME LEFT:  2.00D  GRAD.:     0.570 HEAT: -139.1370
 CYCLE:   277 TIME:   0.016 TIME LEFT:  2.00D  GRAD.:     0.421 HEAT: -139.1374
 CYCLE:   278 TIME:   0.012 TIME LEFT:  2.00D  GRAD.:     0.214 HEAT: -139.1377
 CYCLE:   279 TIME:   0.012 TIME LEFT:  2.00D  GRAD.:     0.092 HEAT: -139.1378
 CYCLE:   280 TIME:   0.012 TIME LEFT:  2.00D  GRAD.:     0.068 HEAT: -139.1378
 CYCLE:   281 TIME:   0.012 TIME LEFT:  2.00D  GRAD.:     0.048 HEAT: -139.1378

     GRADIENT =  0.04842 IS LESS THAN CUTOFF =  0.05000



 -------------------------------------------------------------------------------
 PRECISE LARGE CHARGE=1 SINGLET  PM7
 Na(+) + 4H2O



     GEOMETRY OPTIMISED USING EIGENVECTOR FOLLOWING (EF).     
     SCF FIELD WAS ACHIEVED                                   


                              PM7 CALCULATION
                                                       MOPAC v22.1.0 Windows
                                                       Mon Jan 29 11:59:54 2024




          FINAL HEAT OF FORMATION =       -139.13784 KCAL/MOL =    -582.15272 KJ/MOL


          COSMO AREA              =        158.88 SQUARE ANGSTROMS
          COSMO VOLUME            =        145.93 CUBIC ANGSTROMS

          GRADIENT NORM           =          0.04842          =       0.01343 PER ATOM
          IONIZATION POTENTIAL    =         16.457113 EV
          HOMO LUMO ENERGIES (EV) =        -16.457 -1.281
          NO. OF FILLED LEVELS    =         16
          MOLECULAR WEIGHT        =         95.0506         POINT GROUP:  C1  

          MOLECULAR DIMENSIONS (Angstroms)

            Atom       Atom       Distance
            H    11    H     8     8.05689
            H     4    H     7     4.98158
            H    13    H    10     3.00190


          SCF CALCULATIONS        =        315
 
          WALL-CLOCK TIME         =      3.898 SECONDS
          COMPUTATION TIME        =      7.234 SECONDS




   ATOM   CHEMICAL          X               Y               Z
  NUMBER   SYMBOL      (ANGSTROMS)     (ANGSTROMS)     (ANGSTROMS)
 
     1      Na         -2.14288419  *   1.29737599  *   2.18369424  *
     2       H         -1.80103463  *  -1.73299369  *   2.12475880  *
     3       O         -2.33727036  *  -1.10113379  *   1.62429446  *
     4       H         -2.84102362  *  -1.61109426  *   0.98832162  *
     5       H         -0.48688248  *  -0.67636228  *   3.75059001  *
     6       O         -0.60620334  *   0.28834836  *   3.77225904  *
     7       H         -0.05532272  *   0.62560677  *   4.47564787  *
     8       H          0.39880995  *  -2.76293407  *   3.23634694  *
     9       O         -0.43640492  *  -2.37956473  *   3.52938334  *
    10       H         -0.73574995  *  -2.93239196  *   4.26091381  *
    11       H         -3.84845900  *   3.88616315  *   1.60426430  *
    12       O         -3.00902011  *   3.47038400  *   1.37683647  *
    13       H         -2.57670228  *   4.07842009  *   0.76637257  *

                             CARTESIAN COORDINATES

   1   Na       -2.142884191     1.297375985     2.183694242
   2    H       -1.801034635    -1.732993690     2.124758802
   3    O       -2.337270362    -1.101133794     1.624294465
   4    H       -2.841023616    -1.611094264     0.988321622
   5    H       -0.486882481    -0.676362281     3.750590012
   6    O       -0.606203335     0.288348359     3.772259036
   7    H       -0.055322717     0.625606770     4.475647874
   8    H        0.398809946    -2.762934072     3.236346943
   9    O       -0.436404918    -2.379564725     3.529383344
  10    H       -0.735749954    -2.932391955     4.260913814
  11    H       -3.848458998     3.886163150     1.604264304
  12    O       -3.009020111     3.470384003     1.376836467
  13    H       -2.576702279     4.078420091     0.766372573


           Empirical Formula: H8 O4 Na  =    13 atoms



      MOLECULAR POINT GROUP   :   C1  


                  EIGENVALUES  
 -33.82444 -33.70274 -33.23550 -32.97138 -22.27209 -22.26458 -22.04099 -21.73831
 -19.38559 -19.04544 -18.74687 -18.31476 -16.89369 -16.60591 -16.53171 -16.45711
  -1.28072  -0.88797  -0.36055  -0.07271   0.49939   1.28765   1.87721   2.15597
   2.29311   2.33199   2.66024   2.92643


              NET ATOMIC CHARGES AND DIPOLE CONTRIBUTIONS

  ATOM NO.   TYPE          CHARGE      No. of ELECS.   s-Pop       p-Pop       
    1         Na           0.865049        0.1350     0.01836     0.11659
    2          H           0.394958        0.6050     0.60504
    3          O          -0.743569        6.7436     1.77908     4.96449
    4          H           0.386017        0.6140     0.61398
    5          H           0.403995        0.5960     0.59601
    6          O          -0.763999        6.7640     1.77471     4.98929
    7          H           0.386859        0.6131     0.61314
    8          H           0.373993        0.6260     0.62601
    9          O          -0.719705        6.7197     1.80234     4.91736
   10          H           0.373985        0.6260     0.62601
   11          H           0.390176        0.6098     0.60982
   12          O          -0.737867        6.7379     1.78130     4.95657
   13          H           0.390107        0.6099     0.60989
 DIPOLE           X         Y         Z       TOTAL
 POINT-CHG.    -0.273     0.786    -0.230     0.864
 HYBRID         0.188    -0.365     0.141     0.434
 SUM           -0.085     0.421    -0.089     0.439


          ATOMIC ORBITAL ELECTRON POPULATIONS

     Atom    s        px        py        pz   
    1 Na   0.01836   0.02501   0.06405   0.02753
    2  H   0.60504
    3  O   1.77908   1.72943   1.56597   1.66909
    4  H   0.61398
    5  H   0.59601
    6  O   1.77471   1.79868   1.48469   1.70593
    7  H   0.61314
    8  H   0.62601
    9  O   1.80234   1.57206   1.68275   1.66255
   10  H   0.62601
   11  H   0.60982
   12  O   1.78130   1.53857   1.64412   1.77388
   13  H   0.60989

 **********************
 *                    *
 * JOB ENDED NORMALLY *
 *                    *
 **********************



 TOTAL JOB TIME:             3.92 SECONDS

 == MOPAC DONE ==
