 *******************************************************************************
 **                                                                           **
 **                              MOPAC v22.1.0                                **
 **                                                                           **
 *******************************************************************************
 **          Digital Object Identifier (DOI): 10.5281/zenodo.6511958          **
 **    Visit the DOI location for information on how to cite this program.    **
 *******************************************************************************

                              PM7 CALCULATION RESULTS

 *******************************************************************************
 *  CALCULATION DONE:                                Mon Jan 29 11:59:57 2024  *
 *  PM7        - The PM7 Hamiltonian to be used
 *  SINGLET    - SPIN STATE DEFINED AS A SINGLET
 *
 *
 *
 *                 CHARGE ON SYSTEM = +1
 *
 *
 *
 *  PRECISE    - TIGHTER CRITERIA TO BE USED
 *  T=         - A TIME OF 172800.0 SECONDS REQUESTED
 *  DUMP=N     - RESTART FILE WRITTEN EVERY 7200.0 SECONDS REQUESTED
 *  LARGE      - EXPANDED OUTPUT TO BE PRINTED
 *******************************************************************************
 PRECISE LARGE CHARGE=1 SINGLET  PM7
 Na(+) + 5H2O

   ATOM   CHEMICAL          X               Y               Z
  NUMBER   SYMBOL      (ANGSTROMS)     (ANGSTROMS)     (ANGSTROMS)
 
     1      Na         -1.26920000  *   0.03969000  *   2.38633000  *
     2       H         -3.32504000  *  -1.54779000  *   1.08943000  *
     3       O         -3.56890000  *  -0.74665000  *   0.56094000  *
     4       H         -4.48135000  *  -0.93783000  *   0.22714000  *
     5       H          0.12337000  *   0.55104000  *   4.84445000  *
     6       O          0.47573000  *   1.42740000  *   4.54703000  *
     7       H         -0.33071000  *   1.95343000  *   4.31558000  *
     8       H         -0.68405000  *  -3.33083000  *   4.12594000  *
     9       O         -0.22962000  *  -2.62563000  *   3.59972000  *
    10       H         -0.95365000  *  -1.99922000  *   3.34696000  *
    11       H         -3.37963000  *   2.49112000  *   1.92519000  *
    12       O         -2.92523000  *   3.19632000  *   1.39899000  *
    13       H         -3.64933000  *   3.82272000  *   1.14629000  *
    14       H         -2.61168000  *  -3.17840000  *   2.64308000  *
    15       O         -1.77734000  *  -3.10218000  *   2.11513000  *
    16       H         -2.03772000  *  -2.58278000  *   1.31328000  *
 


          CARTESIAN COORDINATES 

    NO.       ATOM           X           Y           Z

     1        Na         -1.2692      0.0397      2.3863
     2         H         -3.3250     -1.5478      1.0894
     3         O         -3.5689     -0.7467      0.5609
     4         H         -4.4813     -0.9378      0.2271
     5         H          0.1234      0.5510      4.8445
     6         O          0.4757      1.4274      4.5470
     7         H         -0.3307      1.9534      4.3156
     8         H         -0.6841     -3.3308      4.1259
     9         O         -0.2296     -2.6256      3.5997
    10         H         -0.9537     -1.9992      3.3470
    11         H         -3.3796      2.4911      1.9252
    12         O         -2.9252      3.1963      1.3990
    13         H         -3.6493      3.8227      1.1463
    14         H         -2.6117     -3.1784      2.6431
    15         O         -1.7773     -3.1022      2.1151
    16         H         -2.0377     -2.5828      1.3133

 General Reference for PM7:
 "Optimization of Parameters for Semiempirical Methods VI: More Modifications to the 
 NDDO Approximations and Re-optimization of Parameters", J. J. P. Stewart, J. Mol. Mod., 1:32, 19 (2013)
 https://link.springer.com/article/10.1007/s00894-012-1667-x

           Empirical Formula: H10 O5 Na  =    16 atoms



      MOLECULAR POINT GROUP   :   C1  


 SINGLET STATE CALCULATION


      RHF CALCULATION, NO. OF DOUBLY OCCUPIED LEVELS = 20


          Geometry optimization using EF

          DIAGONAL MATRIX USED AS START HESSIAN

 CYCLE:     1 TIME:   0.148 TIME LEFT:  2.00D  GRAD.:   108.209 HEAT: -110.5766
 CYCLE:     2 TIME:   0.023 TIME LEFT:  2.00D  GRAD.:   101.139 HEAT: -119.2344
 CYCLE:     3 TIME:   0.016 TIME LEFT:  2.00D  GRAD.:   120.316 HEAT: -129.0253
 CYCLE:     4 TIME:   0.020 TIME LEFT:  2.00D  GRAD.:   136.235 HEAT: -139.8231
 CYCLE:     5 TIME:   0.020 TIME LEFT:  2.00D  GRAD.:   102.890 HEAT: -149.6163
 CYCLE:     6 TIME:   0.016 TIME LEFT:  2.00D  GRAD.:    73.984 HEAT: -161.3453
 CYCLE:     7 TIME:   0.020 TIME LEFT:  2.00D  GRAD.:   105.764 HEAT: -165.2963
 CYCLE:     8 TIME:   0.016 TIME LEFT:  2.00D  GRAD.:    68.708 HEAT: -171.0478
 CYCLE:     9 TIME:   0.035 TIME LEFT:  2.00D  GRAD.:    94.816 HEAT: -172.1331
 CYCLE:    10 TIME:   0.016 TIME LEFT:  2.00D  GRAD.:    43.731 HEAT: -177.6017
 CYCLE:    11 TIME:   0.020 TIME LEFT:  2.00D  GRAD.:    60.962 HEAT: -179.2936
 CYCLE:    12 TIME:   0.020 TIME LEFT:  2.00D  GRAD.:    39.894 HEAT: -181.6551
 CYCLE:    13 TIME:   0.012 TIME LEFT:  2.00D  GRAD.:    35.694 HEAT: -183.1901
 CYCLE:    14 TIME:   0.020 TIME LEFT:  2.00D  GRAD.:    24.920 HEAT: -184.5944
 CYCLE:    15 TIME:   0.016 TIME LEFT:  2.00D  GRAD.:    53.747 HEAT: -185.5869
 CYCLE:    16 TIME:   0.020 TIME LEFT:  2.00D  GRAD.:    46.410 HEAT: -187.2821
 CYCLE:    17 TIME:   0.016 TIME LEFT:  2.00D  GRAD.:    47.212 HEAT: -188.0683
 CYCLE:    18 TIME:   0.016 TIME LEFT:  2.00D  GRAD.:    25.337 HEAT: -189.7550
 CYCLE:    19 TIME:   0.020 TIME LEFT:  2.00D  GRAD.:    27.955 HEAT: -190.5702
 CYCLE:    20 TIME:   0.016 TIME LEFT:  2.00D  GRAD.:    26.670 HEAT: -191.4629
 CYCLE:    21 TIME:   0.020 TIME LEFT:  2.00D  GRAD.:    32.317 HEAT: -193.0753
 CYCLE:    22 TIME:   0.016 TIME LEFT:  2.00D  GRAD.:    36.941 HEAT: -193.8590
 CYCLE:    23 TIME:   0.016 TIME LEFT:  2.00D  GRAD.:    21.066 HEAT: -195.0255
 CYCLE:    24 TIME:   0.016 TIME LEFT:  2.00D  GRAD.:    17.077 HEAT: -195.8957
 CYCLE:    25 TIME:   0.016 TIME LEFT:  2.00D  GRAD.:    14.415 HEAT: -196.2235
 CYCLE:    26 TIME:   0.016 TIME LEFT:  2.00D  GRAD.:    15.637 HEAT: -196.6427
 CYCLE:    27 TIME:   0.016 TIME LEFT:  2.00D  GRAD.:    18.931 HEAT: -197.2007
 CYCLE:    28 TIME:   0.012 TIME LEFT:  2.00D  GRAD.:    15.116 HEAT: -197.6359
 CYCLE:    29 TIME:   0.020 TIME LEFT:  2.00D  GRAD.:    16.289 HEAT: -198.0415
 CYCLE:    30 TIME:   0.016 TIME LEFT:  2.00D  GRAD.:    21.002 HEAT: -198.4544
 CYCLE:    31 TIME:   0.020 TIME LEFT:  2.00D  GRAD.:    26.258 HEAT: -198.8251
 CYCLE:    32 TIME:   0.020 TIME LEFT:  2.00D  GRAD.:    16.166 HEAT: -199.4063
 CYCLE:    33 TIME:   0.020 TIME LEFT:  2.00D  GRAD.:    13.097 HEAT: -199.7400
 CYCLE:    34 TIME:   0.020 TIME LEFT:  2.00D  GRAD.:    13.455 HEAT: -200.0136
 CYCLE:    35 TIME:   0.035 TIME LEFT:  2.00D  GRAD.:    11.276 HEAT: -200.3449
 CYCLE:    36 TIME:   0.039 TIME LEFT:  2.00D  GRAD.:    17.656 HEAT: -201.1798
 CYCLE:    37 TIME:   0.020 TIME LEFT:  2.00D  GRAD.:    17.524 HEAT: -201.6424
 CYCLE:    38 TIME:   0.023 TIME LEFT:  2.00D  GRAD.:    26.477 HEAT: -202.4330
 CYCLE:    39 TIME:   0.023 TIME LEFT:  2.00D  GRAD.:    19.026 HEAT: -203.0236
 CYCLE:    40 TIME:   0.035 TIME LEFT:  2.00D  GRAD.:    25.059 HEAT: -203.5677
 CYCLE:    41 TIME:   0.039 TIME LEFT:  2.00D  GRAD.:    39.453 HEAT: -203.7854
 CYCLE:    42 TIME:   0.016 TIME LEFT:  2.00D  GRAD.:    24.937 HEAT: -204.5923
 CYCLE:    43 TIME:   0.020 TIME LEFT:  2.00D  GRAD.:    19.393 HEAT: -205.0516
 CYCLE:    44 TIME:   0.016 TIME LEFT:  2.00D  GRAD.:    14.378 HEAT: -205.4569
 CYCLE:    45 TIME:   0.016 TIME LEFT:  2.00D  GRAD.:    11.460 HEAT: -205.7254
 CYCLE:    46 TIME:   0.016 TIME LEFT:  2.00D  GRAD.:     8.535 HEAT: -205.9086
 CYCLE:    47 TIME:   0.016 TIME LEFT:  2.00D  GRAD.:     9.097 HEAT: -206.1817
 CYCLE:    48 TIME:   0.020 TIME LEFT:  2.00D  GRAD.:     7.687 HEAT: -206.2846
 CYCLE:    49 TIME:   0.016 TIME LEFT:  2.00D  GRAD.:     7.517 HEAT: -206.4087
 CYCLE:    50 TIME:   0.012 TIME LEFT:  2.00D  GRAD.:     7.838 HEAT: -206.5805
 CYCLE:    51 TIME:   0.020 TIME LEFT:  2.00D  GRAD.:    14.782 HEAT: -206.7564
 CYCLE:    52 TIME:   0.016 TIME LEFT:  2.00D  GRAD.:    11.816 HEAT: -206.9903
 CYCLE:    53 TIME:   0.020 TIME LEFT:  2.00D  GRAD.:    14.354 HEAT: -207.7360
 CYCLE:    54 TIME:   0.016 TIME LEFT:  2.00D  GRAD.:     9.448 HEAT: -207.8783
 CYCLE:    55 TIME:   0.016 TIME LEFT:  2.00D  GRAD.:    11.379 HEAT: -208.0045
 CYCLE:    56 TIME:   0.016 TIME LEFT:  2.00D  GRAD.:     9.992 HEAT: -208.1074
 CYCLE:    57 TIME:   0.016 TIME LEFT:  2.00D  GRAD.:     9.627 HEAT: -208.2332
 CYCLE:    58 TIME:   0.016 TIME LEFT:  2.00D  GRAD.:     9.262 HEAT: -208.3918
 CYCLE:    59 TIME:   0.020 TIME LEFT:  2.00D  GRAD.:     9.032 HEAT: -208.5515
 CYCLE:    60 TIME:   0.016 TIME LEFT:  2.00D  GRAD.:     6.757 HEAT: -208.6658
 CYCLE:    61 TIME:   0.016 TIME LEFT:  2.00D  GRAD.:     5.808 HEAT: -208.7380
 CYCLE:    62 TIME:   0.020 TIME LEFT:  2.00D  GRAD.:     7.691 HEAT: -208.8153
 CYCLE:    63 TIME:   0.016 TIME LEFT:  2.00D  GRAD.:     8.723 HEAT: -208.8953
 CYCLE:    64 TIME:   0.016 TIME LEFT:  2.00D  GRAD.:     7.113 HEAT: -208.9992
 CYCLE:    65 TIME:   0.012 TIME LEFT:  2.00D  GRAD.:     4.430 HEAT: -209.0406
 CYCLE:    66 TIME:   0.020 TIME LEFT:  2.00D  GRAD.:     4.205 HEAT: -209.0843
 CYCLE:    67 TIME:   0.016 TIME LEFT:  2.00D  GRAD.:     3.939 HEAT: -209.1076
 CYCLE:    68 TIME:   0.012 TIME LEFT:  2.00D  GRAD.:     3.194 HEAT: -209.1364
 CYCLE:    69 TIME:   0.016 TIME LEFT:  2.00D  GRAD.:     2.878 HEAT: -209.1582
 CYCLE:    70 TIME:   0.016 TIME LEFT:  2.00D  GRAD.:     2.342 HEAT: -209.1672
 CYCLE:    71 TIME:   0.016 TIME LEFT:  2.00D  GRAD.:     3.610 HEAT: -209.2009
 CYCLE:    72 TIME:   0.016 TIME LEFT:  2.00D  GRAD.:     3.149 HEAT: -209.2191
 CYCLE:    73 TIME:   0.020 TIME LEFT:  2.00D  GRAD.:     5.000 HEAT: -209.2443
 CYCLE:    74 TIME:   0.016 TIME LEFT:  2.00D  GRAD.:     1.863 HEAT: -209.2657
 CYCLE:    75 TIME:   0.016 TIME LEFT:  2.00D  GRAD.:     1.289 HEAT: -209.2686
 CYCLE:    76 TIME:   0.016 TIME LEFT:  2.00D  GRAD.:     1.291 HEAT: -209.2719
 CYCLE:    77 TIME:   0.016 TIME LEFT:  2.00D  GRAD.:     1.909 HEAT: -209.2789
 CYCLE:    78 TIME:   0.016 TIME LEFT:  2.00D  GRAD.:     2.601 HEAT: -209.2871
 CYCLE:    79 TIME:   0.016 TIME LEFT:  2.00D  GRAD.:     3.585 HEAT: -209.3053
 CYCLE:    80 TIME:   0.016 TIME LEFT:  2.00D  GRAD.:     2.400 HEAT: -209.3233
 CYCLE:    81 TIME:   0.016 TIME LEFT:  2.00D  GRAD.:     1.483 HEAT: -209.3291
 CYCLE:    82 TIME:   0.016 TIME LEFT:  2.00D  GRAD.:     1.315 HEAT: -209.3321
 CYCLE:    83 TIME:   0.016 TIME LEFT:  2.00D  GRAD.:     1.374 HEAT: -209.3351
 CYCLE:    84 TIME:   0.016 TIME LEFT:  2.00D  GRAD.:     1.729 HEAT: -209.3428
 CYCLE:    85 TIME:   0.012 TIME LEFT:  2.00D  GRAD.:     1.965 HEAT: -209.3551
 CYCLE:    86 TIME:   0.020 TIME LEFT:  2.00D  GRAD.:     1.725 HEAT: -209.3665
 CYCLE:    87 TIME:   0.016 TIME LEFT:  2.00D  GRAD.:     1.508 HEAT: -209.3733
 CYCLE:    88 TIME:   0.020 TIME LEFT:  2.00D  GRAD.:     1.294 HEAT: -209.3765
 CYCLE:    89 TIME:   0.012 TIME LEFT:  2.00D  GRAD.:     1.674 HEAT: -209.3799
 CYCLE:    90 TIME:   0.016 TIME LEFT:  2.00D  GRAD.:     1.432 HEAT: -209.3837
 CYCLE:    91 TIME:   0.016 TIME LEFT:  2.00D  GRAD.:     1.318 HEAT: -209.3879
 CYCLE:    92 TIME:   0.016 TIME LEFT:  2.00D  GRAD.:     1.803 HEAT: -209.3920
 CYCLE:    93 TIME:   0.016 TIME LEFT:  2.00D  GRAD.:     1.577 HEAT: -209.3944
 CYCLE:    94 TIME:   0.016 TIME LEFT:  2.00D  GRAD.:     2.067 HEAT: -209.4057
 CYCLE:    95 TIME:   0.020 TIME LEFT:  2.00D  GRAD.:     1.556 HEAT: -209.4103
 CYCLE:    96 TIME:   0.023 TIME LEFT:  2.00D  GRAD.:     0.960 HEAT: -209.4153
 CYCLE:    97 TIME:   0.020 TIME LEFT:  2.00D  GRAD.:     0.605 HEAT: -209.4161
 CYCLE:    98 TIME:   0.012 TIME LEFT:  2.00D  GRAD.:     0.624 HEAT: -209.4173
 CYCLE:    99 TIME:   0.016 TIME LEFT:  2.00D  GRAD.:     0.762 HEAT: -209.4183
 CYCLE:   100 TIME:   0.016 TIME LEFT:  2.00D  GRAD.:     0.755 HEAT: -209.4194
 CYCLE:   101 TIME:   0.016 TIME LEFT:  2.00D  GRAD.:     1.019 HEAT: -209.4212
 CYCLE:   102 TIME:   0.020 TIME LEFT:  2.00D  GRAD.:     0.920 HEAT: -209.4227
 CYCLE:   103 TIME:   0.020 TIME LEFT:  2.00D  GRAD.:     0.771 HEAT: -209.4251
 CYCLE:   104 TIME:   0.012 TIME LEFT:  2.00D  GRAD.:     0.642 HEAT: -209.4258
 CYCLE:   105 TIME:   0.016 TIME LEFT:  2.00D  GRAD.:     0.643 HEAT: -209.4270
 CYCLE:   106 TIME:   0.016 TIME LEFT:  2.00D  GRAD.:     0.657 HEAT: -209.4277
 CYCLE:   107 TIME:   0.016 TIME LEFT:  2.00D  GRAD.:     1.120 HEAT: -209.4298
 CYCLE:   108 TIME:   0.016 TIME LEFT:  2.00D  GRAD.:     0.887 HEAT: -209.4307
 CYCLE:   109 TIME:   0.016 TIME LEFT:  2.00D  GRAD.:     0.895 HEAT: -209.4330
 CYCLE:   110 TIME:   0.016 TIME LEFT:  2.00D  GRAD.:     0.510 HEAT: -209.4338
 CYCLE:   111 TIME:   0.016 TIME LEFT:  2.00D  GRAD.:     0.355 HEAT: -209.4342
 CYCLE:   112 TIME:   0.023 TIME LEFT:  2.00D  GRAD.:     0.414 HEAT: -209.4344
 CYCLE:   113 TIME:   0.016 TIME LEFT:  2.00D  GRAD.:     0.588 HEAT: -209.4351
 CYCLE:   114 TIME:   0.020 TIME LEFT:  2.00D  GRAD.:     0.922 HEAT: -209.4367
 CYCLE:   115 TIME:   0.016 TIME LEFT:  2.00D  GRAD.:     0.864 HEAT: -209.4390
 CYCLE:   116 TIME:   0.016 TIME LEFT:  2.00D  GRAD.:     1.046 HEAT: -209.4392
 CYCLE:   117 TIME:   0.016 TIME LEFT:  2.00D  GRAD.:     0.485 HEAT: -209.4408
 CYCLE:   118 TIME:   0.012 TIME LEFT:  2.00D  GRAD.:     0.434 HEAT: -209.4411
 CYCLE:   119 TIME:   0.016 TIME LEFT:  2.00D  GRAD.:     0.754 HEAT: -209.4440
 CYCLE:   120 TIME:   0.016 TIME LEFT:  2.00D  GRAD.:     0.755 HEAT: -209.4462
 CYCLE:   121 TIME:   0.016 TIME LEFT:  2.00D  GRAD.:     1.056 HEAT: -209.4495
 CYCLE:   122 TIME:   0.016 TIME LEFT:  2.00D  GRAD.:     0.640 HEAT: -209.4507
 CYCLE:   123 TIME:   0.020 TIME LEFT:  2.00D  GRAD.:     0.500 HEAT: -209.4512
 CYCLE:   124 TIME:   0.016 TIME LEFT:  2.00D  GRAD.:     0.601 HEAT: -209.4524
 CYCLE:   125 TIME:   0.016 TIME LEFT:  2.00D  GRAD.:     1.047 HEAT: -209.4547
 CYCLE:   126 TIME:   0.016 TIME LEFT:  2.00D  GRAD.:     1.422 HEAT: -209.4585
 CYCLE:   127 TIME:   0.020 TIME LEFT:  2.00D  GRAD.:     1.628 HEAT: -209.4665
 CYCLE:   128 TIME:   0.016 TIME LEFT:  2.00D  GRAD.:     1.244 HEAT: -209.4725
 CYCLE:   129 TIME:   0.016 TIME LEFT:  2.00D  GRAD.:     0.697 HEAT: -209.4737
 CYCLE:   130 TIME:   0.016 TIME LEFT:  2.00D  GRAD.:     0.505 HEAT: -209.4741
 CYCLE:   131 TIME:   0.020 TIME LEFT:  2.00D  GRAD.:     0.644 HEAT: -209.4747
 CYCLE:   132 TIME:   0.016 TIME LEFT:  2.00D  GRAD.:     0.685 HEAT: -209.4759
 CYCLE:   133 TIME:   0.020 TIME LEFT:  2.00D  GRAD.:     0.863 HEAT: -209.4789
 CYCLE:   134 TIME:   0.012 TIME LEFT:  2.00D  GRAD.:     0.735 HEAT: -209.4811
 CYCLE:   135 TIME:   0.020 TIME LEFT:  2.00D  GRAD.:     0.964 HEAT: -209.4823
 CYCLE:   136 TIME:   0.016 TIME LEFT:  2.00D  GRAD.:     0.483 HEAT: -209.4833
 CYCLE:   137 TIME:   0.020 TIME LEFT:  2.00D  GRAD.:     0.539 HEAT: -209.4839
 CYCLE:   138 TIME:   0.016 TIME LEFT:  2.00D  GRAD.:     0.472 HEAT: -209.4843
 CYCLE:   139 TIME:   0.016 TIME LEFT:  2.00D  GRAD.:     0.479 HEAT: -209.4848
 CYCLE:   140 TIME:   0.016 TIME LEFT:  2.00D  GRAD.:     0.622 HEAT: -209.4860
 CYCLE:   141 TIME:   0.020 TIME LEFT:  2.00D  GRAD.:     0.491 HEAT: -209.4865
 CYCLE:   142 TIME:   0.016 TIME LEFT:  2.00D  GRAD.:     0.536 HEAT: -209.4871
 CYCLE:   143 TIME:   0.012 TIME LEFT:  2.00D  GRAD.:     0.531 HEAT: -209.4874
 CYCLE:   144 TIME:   0.016 TIME LEFT:  2.00D  GRAD.:     0.497 HEAT: -209.4879
 CYCLE:   145 TIME:   0.016 TIME LEFT:  2.00D  GRAD.:     0.616 HEAT: -209.4885
 CYCLE:   146 TIME:   0.020 TIME LEFT:  2.00D  GRAD.:     0.540 HEAT: -209.4893
 CYCLE:   147 TIME:   0.012 TIME LEFT:  2.00D  GRAD.:     0.653 HEAT: -209.4895
 CYCLE:   148 TIME:   0.020 TIME LEFT:  2.00D  GRAD.:     0.222 HEAT: -209.4898
 CYCLE:   149 TIME:   0.012 TIME LEFT:  2.00D  GRAD.:     0.183 HEAT: -209.4898
 CYCLE:   150 TIME:   0.020 TIME LEFT:  2.00D  GRAD.:     0.212 HEAT: -209.4900
 CYCLE:   151 TIME:   0.020 TIME LEFT:  2.00D  GRAD.:     0.343 HEAT: -209.4905
 CYCLE:   152 TIME:   0.012 TIME LEFT:  2.00D  GRAD.:     0.525 HEAT: -209.4913
 CYCLE:   153 TIME:   0.020 TIME LEFT:  2.00D  GRAD.:     0.860 HEAT: -209.4934
 CYCLE:   154 TIME:   0.020 TIME LEFT:  2.00D  GRAD.:     1.004 HEAT: -209.4963
 CYCLE:   155 TIME:   0.016 TIME LEFT:  2.00D  GRAD.:     0.832 HEAT: -209.4976
 CYCLE:   156 TIME:   0.020 TIME LEFT:  2.00D  GRAD.:     0.865 HEAT: -209.4978
 CYCLE:   157 TIME:   0.016 TIME LEFT:  2.00D  GRAD.:     0.256 HEAT: -209.4984
 CYCLE:   158 TIME:   0.016 TIME LEFT:  2.00D  GRAD.:     0.228 HEAT: -209.4984
 CYCLE:   159 TIME:   0.016 TIME LEFT:  2.00D  GRAD.:     0.201 HEAT: -209.4985
 CYCLE:   160 TIME:   0.016 TIME LEFT:  2.00D  GRAD.:     0.378 HEAT: -209.4988
 CYCLE:   161 TIME:   0.020 TIME LEFT:  2.00D  GRAD.:     0.600 HEAT: -209.4991
 CYCLE:   162 TIME:   0.012 TIME LEFT:  2.00D  GRAD.:     1.250 HEAT: -209.5003
 CYCLE:   163 TIME:   0.016 TIME LEFT:  2.00D  GRAD.:     1.705 HEAT: -209.5026
 CYCLE:   164 TIME:   0.016 TIME LEFT:  2.00D  GRAD.:     3.912 HEAT: -209.5004
 CYCLE:   165 TIME:   0.031 TIME LEFT:  2.00D  GRAD.:     2.224 HEAT: -209.5099
 CYCLE:   166 TIME:   0.020 TIME LEFT:  2.00D  GRAD.:     3.175 HEAT: -209.5041
 CYCLE:   167 TIME:   0.016 TIME LEFT:  2.00D  GRAD.:     0.415 HEAT: -209.5130
 CYCLE:   168 TIME:   0.016 TIME LEFT:  2.00D  GRAD.:     1.398 HEAT: -209.5136
 CYCLE:   169 TIME:   0.016 TIME LEFT:  2.00D  GRAD.:     0.648 HEAT: -209.5146
 CYCLE:   170 TIME:   0.016 TIME LEFT:  2.00D  GRAD.:     0.417 HEAT: -209.5149
 CYCLE:   171 TIME:   0.016 TIME LEFT:  2.00D  GRAD.:     0.358 HEAT: -209.5151
 CYCLE:   172 TIME:   0.016 TIME LEFT:  2.00D  GRAD.:     0.375 HEAT: -209.5152
 CYCLE:   173 TIME:   0.016 TIME LEFT:  2.00D  GRAD.:     0.639 HEAT: -209.5158
 CYCLE:   174 TIME:   0.016 TIME LEFT:  2.00D  GRAD.:     0.998 HEAT: -209.5162
 CYCLE:   175 TIME:   0.016 TIME LEFT:  2.00D  GRAD.:     0.539 HEAT: -209.5170
 CYCLE:   176 TIME:   0.016 TIME LEFT:  2.00D  GRAD.:     0.384 HEAT: -209.5176
 CYCLE:   177 TIME:   0.016 TIME LEFT:  2.00D  GRAD.:     0.394 HEAT: -209.5178
 CYCLE:   178 TIME:   0.016 TIME LEFT:  2.00D  GRAD.:     0.482 HEAT: -209.5178
 CYCLE:   179 TIME:   0.016 TIME LEFT:  2.00D  GRAD.:     0.251 HEAT: -209.5180
 CYCLE:   180 TIME:   0.016 TIME LEFT:  2.00D  GRAD.:     0.211 HEAT: -209.5180
 CYCLE:   181 TIME:   0.016 TIME LEFT:  2.00D  GRAD.:     0.208 HEAT: -209.5181
 CYCLE:   182 TIME:   0.012 TIME LEFT:  2.00D  GRAD.:     0.234 HEAT: -209.5183
 CYCLE:   183 TIME:   0.020 TIME LEFT:  2.00D  GRAD.:     0.164 HEAT: -209.5184
 CYCLE:   184 TIME:   0.016 TIME LEFT:  2.00D  GRAD.:     0.383 HEAT: -209.5185
 CYCLE:   185 TIME:   0.016 TIME LEFT:  2.00D  GRAD.:     0.190 HEAT: -209.5185
 CYCLE:   186 TIME:   0.016 TIME LEFT:  2.00D  GRAD.:     0.291 HEAT: -209.5187
 CYCLE:   187 TIME:   0.016 TIME LEFT:  2.00D  GRAD.:     0.450 HEAT: -209.5189
 CYCLE:   188 TIME:   0.020 TIME LEFT:  2.00D  GRAD.:     0.578 HEAT: -209.5191
 CYCLE:   189 TIME:   0.016 TIME LEFT:  2.00D  GRAD.:     0.502 HEAT: -209.5194
 CYCLE:   190 TIME:   0.016 TIME LEFT:  2.00D  GRAD.:     0.848 HEAT: -209.5194
 CYCLE:   191 TIME:   0.020 TIME LEFT:  2.00D  GRAD.:     0.312 HEAT: -209.5199
 CYCLE:   192 TIME:   0.016 TIME LEFT:  2.00D  GRAD.:     0.278 HEAT: -209.5201
 CYCLE:   193 TIME:   0.016 TIME LEFT:  2.00D  GRAD.:     0.418 HEAT: -209.5204
 CYCLE:   194 TIME:   0.016 TIME LEFT:  2.00D  GRAD.:     0.410 HEAT: -209.5206
 CYCLE:   195 TIME:   0.016 TIME LEFT:  2.00D  GRAD.:     0.351 HEAT: -209.5209
 CYCLE:   196 TIME:   0.016 TIME LEFT:  2.00D  GRAD.:     0.314 HEAT: -209.5210
 CYCLE:   197 TIME:   0.016 TIME LEFT:  2.00D  GRAD.:     0.190 HEAT: -209.5211
 CYCLE:   198 TIME:   0.012 TIME LEFT:  2.00D  GRAD.:     0.210 HEAT: -209.5212
 CYCLE:   199 TIME:   0.016 TIME LEFT:  2.00D  GRAD.:     0.311 HEAT: -209.5214
 CYCLE:   200 TIME:   0.016 TIME LEFT:  2.00D  GRAD.:     0.530 HEAT: -209.5217
 CYCLE:   201 TIME:   0.012 TIME LEFT:  2.00D  GRAD.:     0.898 HEAT: -209.5228
 CYCLE:   202 TIME:   0.020 TIME LEFT:  2.00D  GRAD.:     1.595 HEAT: -209.5258
 CYCLE:   203 TIME:   0.035 TIME LEFT:  2.00D  GRAD.:     4.134 HEAT: -209.5165
 CYCLE:   204 TIME:   0.016 TIME LEFT:  2.00D  GRAD.:     2.916 HEAT: -209.5267
 CYCLE:   205 TIME:   0.016 TIME LEFT:  2.00D  GRAD.:     3.195 HEAT: -209.5253
 CYCLE:   206 TIME:   0.016 TIME LEFT:  2.00D  GRAD.:     1.391 HEAT: -209.5296
 CYCLE:   207 TIME:   0.016 TIME LEFT:  2.00D  GRAD.:     1.190 HEAT: -209.5319
 CYCLE:   208 TIME:   0.016 TIME LEFT:  2.00D  GRAD.:     0.420 HEAT: -209.5323
 CYCLE:   209 TIME:   0.020 TIME LEFT:  2.00D  GRAD.:     0.806 HEAT: -209.5326
 CYCLE:   210 TIME:   0.016 TIME LEFT:  2.00D  GRAD.:     0.624 HEAT: -209.5331
 CYCLE:   211 TIME:   0.016 TIME LEFT:  2.00D  GRAD.:     0.571 HEAT: -209.5340
 CYCLE:   212 TIME:   0.020 TIME LEFT:  2.00D  GRAD.:     0.690 HEAT: -209.5349
 CYCLE:   213 TIME:   0.020 TIME LEFT:  2.00D  GRAD.:     0.709 HEAT: -209.5364
 CYCLE:   214 TIME:   0.031 TIME LEFT:  2.00D  GRAD.:     2.660 HEAT: -209.5333
 CYCLE:   215 TIME:   0.016 TIME LEFT:  2.00D  GRAD.:     0.348 HEAT: -209.5371
 CYCLE:   216 TIME:   0.016 TIME LEFT:  2.00D  GRAD.:     0.422 HEAT: -209.5375
 CYCLE:   217 TIME:   0.020 TIME LEFT:  2.00D  GRAD.:     1.864 HEAT: -209.5371
 CYCLE:   218 TIME:   0.016 TIME LEFT:  2.00D  GRAD.:     0.159 HEAT: -209.5384
 CYCLE:   219 TIME:   0.016 TIME LEFT:  2.00D  GRAD.:     0.229 HEAT: -209.5387
 CYCLE:   220 TIME:   0.020 TIME LEFT:  2.00D  GRAD.:     2.152 HEAT: -209.5366
 CYCLE:   221 TIME:   0.016 TIME LEFT:  2.00D  GRAD.:     0.140 HEAT: -209.5390
 CYCLE:   222 TIME:   0.016 TIME LEFT:  2.00D  GRAD.:     0.178 HEAT: -209.5391
 CYCLE:   223 TIME:   0.035 TIME LEFT:  2.00D  GRAD.:     1.795 HEAT: -209.5380
 CYCLE:   224 TIME:   0.016 TIME LEFT:  2.00D  GRAD.:     0.121 HEAT: -209.5394
 CYCLE:   225 TIME:   0.016 TIME LEFT:  2.00D  GRAD.:     0.143 HEAT: -209.5395
 CYCLE:   226 TIME:   0.027 TIME LEFT:  2.00D  GRAD.:     1.753 HEAT: -209.5382
 CYCLE:   227 TIME:   0.016 TIME LEFT:  2.00D  GRAD.:     0.100 HEAT: -209.5397
 CYCLE:   228 TIME:   0.020 TIME LEFT:  2.00D  GRAD.:     0.111 HEAT: -209.5398
 CYCLE:   229 TIME:   0.035 TIME LEFT:  2.00D  GRAD.:     1.661 HEAT: -209.5385
 CYCLE:   230 TIME:   0.016 TIME LEFT:  2.00D  GRAD.:     0.077 HEAT: -209.5399
 CYCLE:   231 TIME:   0.020 TIME LEFT:  2.00D  GRAD.:     0.088 HEAT: -209.5400
 CYCLE:   232 TIME:   0.035 TIME LEFT:  2.00D  GRAD.:     1.606 HEAT: -209.5387
 CYCLE:   233 TIME:   0.016 TIME LEFT:  2.00D  GRAD.:     0.069 HEAT: -209.5401
 CYCLE:   234 TIME:   0.020 TIME LEFT:  2.00D  GRAD.:     0.074 HEAT: -209.5402
 CYCLE:   235 TIME:   0.031 TIME LEFT:  2.00D  GRAD.:     1.570 HEAT: -209.5389
 CYCLE:   236 TIME:   0.016 TIME LEFT:  2.00D  GRAD.:     0.066 HEAT: -209.5403
 CYCLE:   237 TIME:   0.016 TIME LEFT:  2.00D  GRAD.:     0.068 HEAT: -209.5403
 CYCLE:   238 TIME:   0.031 TIME LEFT:  2.00D  GRAD.:     1.567 HEAT: -209.5390
 CYCLE:   239 TIME:   0.020 TIME LEFT:  2.00D  GRAD.:     0.064 HEAT: -209.5404
 CYCLE:   240 TIME:   0.016 TIME LEFT:  2.00D  GRAD.:     0.067 HEAT: -209.5404
 CYCLE:   241 TIME:   0.035 TIME LEFT:  2.00D  GRAD.:     1.580 HEAT: -209.5390
 CYCLE:   242 TIME:   0.016 TIME LEFT:  2.00D  GRAD.:     0.074 HEAT: -209.5405
 CYCLE:   243 TIME:   0.020 TIME LEFT:  2.00D  GRAD.:     0.068 HEAT: -209.5405
 CYCLE:   244 TIME:   0.012 TIME LEFT:  2.00D  GRAD.:     0.118 HEAT: -209.5406
 CYCLE:   245 TIME:   0.020 TIME LEFT:  2.00D  GRAD.:     1.906 HEAT: -209.5385
 CYCLE:   246 TIME:   0.016 TIME LEFT:  2.00D  GRAD.:     0.082 HEAT: -209.5406
 CYCLE:   247 TIME:   0.016 TIME LEFT:  2.00D  GRAD.:     0.079 HEAT: -209.5407
 CYCLE:   248 TIME:   0.016 TIME LEFT:  2.00D  GRAD.:     0.079 HEAT: -209.5407
 CYCLE:   249 TIME:   0.031 TIME LEFT:  2.00D  GRAD.:     1.787 HEAT: -209.5393
 CYCLE:   250 TIME:   0.020 TIME LEFT:  2.00D  GRAD.:     0.132 HEAT: -209.5409
 CYCLE:   251 TIME:   0.016 TIME LEFT:  2.00D  GRAD.:     0.107 HEAT: -209.5410
 CYCLE:   252 TIME:   0.016 TIME LEFT:  2.00D  GRAD.:     3.104 HEAT: -209.5357
 CYCLE:   253 TIME:   0.016 TIME LEFT:  2.00D  GRAD.:     0.146 HEAT: -209.5411
 CYCLE:   254 TIME:   0.016 TIME LEFT:  2.00D  GRAD.:     0.153 HEAT: -209.5413
 CYCLE:   255 TIME:   0.016 TIME LEFT:  2.00D  GRAD.:     0.367 HEAT: -209.5418
 CYCLE:   256 TIME:   0.027 TIME LEFT:  2.00D  GRAD.:     2.026 HEAT: -209.5397
 CYCLE:   257 TIME:   0.016 TIME LEFT:  2.00D  GRAD.:     0.360 HEAT: -209.5420
 CYCLE:   258 TIME:   0.016 TIME LEFT:  2.00D  GRAD.:     0.342 HEAT: -209.5422
 CYCLE:   259 TIME:   0.016 TIME LEFT:  2.00D  GRAD.:     0.202 HEAT: -209.5433
 CYCLE:   260 TIME:   0.012 TIME LEFT:  2.00D  GRAD.:     2.915 HEAT: -209.5396
 CYCLE:   261 TIME:   0.020 TIME LEFT:  2.00D  GRAD.:     0.433 HEAT: -209.5441
 CYCLE:   262 TIME:   0.016 TIME LEFT:  2.00D  GRAD.:     0.334 HEAT: -209.5445
 CYCLE:   263 TIME:   0.027 TIME LEFT:  2.00D  GRAD.:     1.421 HEAT: -209.5447
 CYCLE:   264 TIME:   0.016 TIME LEFT:  2.00D  GRAD.:     0.254 HEAT: -209.5454
 CYCLE:   265 TIME:   0.016 TIME LEFT:  2.00D  GRAD.:     0.217 HEAT: -209.5460
 CYCLE:   266 TIME:   0.016 TIME LEFT:  2.00D  GRAD.:     2.284 HEAT: -209.5442
 CYCLE:   267 TIME:   0.016 TIME LEFT:  2.00D  GRAD.:     0.202 HEAT: -209.5467
 CYCLE:   268 TIME:   0.020 TIME LEFT:  2.00D  GRAD.:     0.188 HEAT: -209.5471
 CYCLE:   269 TIME:   0.020 TIME LEFT:  2.00D  GRAD.:     3.162 HEAT: -209.5418
 CYCLE:   270 TIME:   0.020 TIME LEFT:  2.00D  GRAD.:     0.223 HEAT: -209.5480
 CYCLE:   271 TIME:   0.020 TIME LEFT:  2.00D  GRAD.:     0.264 HEAT: -209.5482
 CYCLE:   272 TIME:   0.020 TIME LEFT:  2.00D  GRAD.:     0.672 HEAT: -209.5483
 CYCLE:   273 TIME:   0.020 TIME LEFT:  2.00D  GRAD.:     0.151 HEAT: -209.5486
 CYCLE:   274 TIME:   0.023 TIME LEFT:  2.00D  GRAD.:     0.137 HEAT: -209.5487
 CYCLE:   275 TIME:   0.016 TIME LEFT:  2.00D  GRAD.:     0.265 HEAT: -209.5486
 CYCLE:   276 TIME:   0.016 TIME LEFT:  2.00D  GRAD.:     0.094 HEAT: -209.5488
 CYCLE:   277 TIME:   0.016 TIME LEFT:  2.00D  GRAD.:     0.118 HEAT: -209.5488
 CYCLE:   278 TIME:   0.020 TIME LEFT:  2.00D  GRAD.:     0.120 HEAT: -209.5488
 CYCLE:   279 TIME:   0.012 TIME LEFT:  2.00D  GRAD.:     0.143 HEAT: -209.5488
 CYCLE:   280 TIME:   0.020 TIME LEFT:  2.00D  GRAD.:     0.085 HEAT: -209.5488
 CYCLE:   281 TIME:   0.016 TIME LEFT:  2.00D  GRAD.:     0.069 HEAT: -209.5488
 CYCLE:   282 TIME:   0.016 TIME LEFT:  2.00D  GRAD.:     0.050 HEAT: -209.5489

     GRADIENT =  0.04968 IS LESS THAN CUTOFF =  0.05000



 -------------------------------------------------------------------------------
 PRECISE LARGE CHARGE=1 SINGLET  PM7
 Na(+) + 5H2O



     GEOMETRY OPTIMISED USING EIGENVECTOR FOLLOWING (EF).     
     SCF FIELD WAS ACHIEVED                                   


                              PM7 CALCULATION
                                                       MOPAC v22.1.0 Windows
                                                       Mon Jan 29 12:00:03 2024




          FINAL HEAT OF FORMATION =       -209.54886 KCAL/MOL =    -876.75241 KJ/MOL


          COSMO AREA              =        182.03 SQUARE ANGSTROMS
          COSMO VOLUME            =        170.96 CUBIC ANGSTROMS

          GRADIENT NORM           =          0.04968          =       0.01242 PER ATOM
          IONIZATION POTENTIAL    =         15.745044 EV
          HOMO LUMO ENERGIES (EV) =        -15.745 -0.880
          NO. OF FILLED LEVELS    =         20
          MOLECULAR WEIGHT        =        113.0658         POINT GROUP:  C1  

          MOLECULAR DIMENSIONS (Angstroms)

            Atom       Atom       Distance
            H    14    H    11     8.33021
            H     8    H     4     5.41017
            H    16    H    11     1.49945


          SCF CALCULATIONS        =        299
 
          WALL-CLOCK TIME         =      5.176 SECONDS
          COMPUTATION TIME        =      9.719 SECONDS




   ATOM   CHEMICAL          X               Y               Z
  NUMBER   SYMBOL      (ANGSTROMS)     (ANGSTROMS)     (ANGSTROMS)
 
     1      Na         -2.07002827  *   1.17929748  *   2.20108293  *
     2       H         -2.53927024  *  -1.80872638  *   1.48337536  *
     3       O         -2.89587097  *  -0.93329228  *   1.25012806  *
     4       H         -3.66665811  *  -1.09330697  *   0.70816863  *
     5       H         -0.35116739  *  -0.50512221  *   3.96143620  *
     6       O         -0.51823208  *   0.46176789  *   3.86914240  *
     7       H          0.21723795  *   0.89766175  *   4.29639824  *
     8       H         -0.06718979  *  -2.70217017  *   4.77934834  *
     9       O         -0.12407852  *  -2.18154315  *   3.97673436  *
    10       H         -0.75060651  *  -2.62826445  *   3.39913184  *
    11       H         -2.72705539  *   4.27794926  *   2.08075469  *
    12       O         -2.73453801  *   3.49052340  *   1.52560594  *
    13       H         -3.03484028  *   3.78749256  *   0.66023403  *
    14       H         -2.56104690  *  -4.05059108  *   2.09643436  *
    15       O         -1.92665946  *  -3.35273398  *   1.89274644  *
    16       H         -1.33115806  *  -3.72849092  *   1.23121473  *

                             CARTESIAN COORDINATES

   1   Na       -2.070028273     1.179297484     2.201082927
   2    H       -2.539270237    -1.808726382     1.483375356
   3    O       -2.895870967    -0.933292275     1.250128063
   4    H       -3.666658106    -1.093306969     0.708168631
   5    H       -0.351167394    -0.505122208     3.961436199
   6    O       -0.518232084     0.461767886     3.869142403
   7    H        0.217237947     0.897661752     4.296398239
   8    H       -0.067189794    -2.702170166     4.779348340
   9    O       -0.124078525    -2.181543151     3.976734359
  10    H       -0.750606507    -2.628264450     3.399131842
  11    H       -2.727055393     4.277949256     2.080754688
  12    O       -2.734538007     3.490523401     1.525605936
  13    H       -3.034840276     3.787492559     0.660234032
  14    H       -2.561046900    -4.050591076     2.096434364
  15    O       -1.926659456    -3.352733985     1.892746439
  16    H       -1.331158056    -3.728490923     1.231214735


           Empirical Formula: H10 O5 Na  =    16 atoms



      MOLECULAR POINT GROUP   :   C1  


                  EIGENVALUES  
 -33.78378 -33.55130 -33.06075 -32.91286 -32.43189 -22.09639 -22.03644 -21.89032
 -21.61900 -21.26218 -19.11747 -18.99839 -18.70617 -18.35626 -17.58370 -16.70116
 -16.52956 -16.39257 -16.18500 -15.74504  -0.87965  -0.68188  -0.35208  -0.13589
   0.58471   1.08202   1.60374   2.27799   2.28882   2.37783   2.53979   2.95071
   3.18009   3.27456


              NET ATOMIC CHARGES AND DIPOLE CONTRIBUTIONS

  ATOM NO.   TYPE          CHARGE      No. of ELECS.   s-Pop       p-Pop       
    1         Na           0.858297        0.1417     0.01967     0.12203
    2          H           0.404274        0.5957     0.59573
    3          O          -0.764943        6.7649     1.78038     4.98456
    4          H           0.380764        0.6192     0.61924
    5          H           0.416158        0.5838     0.58384
    6          O          -0.773828        6.7738     1.77851     4.99532
    7          H           0.387938        0.6121     0.61206
    8          H           0.365178        0.6348     0.63482
    9          O          -0.708854        6.7089     1.79834     4.91052
   10          H           0.367030        0.6330     0.63297
   11          H           0.387053        0.6129     0.61295
   12          O          -0.735355        6.7354     1.78336     4.95200
   13          H           0.386397        0.6136     0.61360
   14          H           0.370292        0.6297     0.62971
   15          O          -0.712204        6.7122     1.80498     4.90722
   16          H           0.371804        0.6282     0.62820
 DIPOLE           X         Y         Z       TOTAL
 POINT-CHG.    -1.991     0.922    -1.520     2.669
 HYBRID        -0.167    -0.558    -0.128     0.596
 SUM           -2.158     0.364    -1.648     2.740


          ATOMIC ORBITAL ELECTRON POPULATIONS

     Atom    s        px        py        pz   
    1 Na   0.01967   0.03216   0.05645   0.03342
    2  H   0.59573
    3  O   1.78038   1.61859   1.55409   1.81188
    4  H   0.61924
    5  H   0.58384
    6  O   1.77851   1.64883   1.47502   1.87147
    7  H   0.61206
    8  H   0.63482
    9  O   1.79834   1.76402   1.65838   1.48811
   10  H   0.63297
   11  H   0.61295
   12  O   1.78336   1.94561   1.54899   1.45741
   13  H   0.61360
   14  H   0.62971
   15  O   1.80498   1.60571   1.57173   1.72979
   16  H   0.62820

 **********************
 *                    *
 * JOB ENDED NORMALLY *
 *                    *
 **********************



 TOTAL JOB TIME:             5.19 SECONDS

 == MOPAC DONE ==
