 *******************************************************************************
 **                                                                           **
 **                              MOPAC v22.1.1                                **
 **                                                                           **
 *******************************************************************************
 **          Digital Object Identifier (DOI): 10.5281/zenodo.6511958          **
 **    Visit the DOI location for information on how to cite this program.    **
 *******************************************************************************

                              PM7 CALCULATION RESULTS

 *******************************************************************************
 *  CALCULATION DONE:                                Mon Feb 19 20:32:51 2024  *
 *  PM7        - The PM7 Hamiltonian to be used
 *  GEO-OK     - OVERRIDE INTERATOMIC DISTANCE AND OTHER SAFETY CHECKS
 *  GEO_DAT    - DATA SET GEOMETRY IS IN FILE "H2_Cl2-singlepoint.arc"
 *  GEO_REF    - REFERENCE GEOMETRY IS IN FILE "HCl_2molecules.arc"
 *               (NO BIAS TOWARDS THE REFERENCE GEOMETRY WILL BE APPLIED)
 *  PRECISE    - TIGHTER CRITERIA TO BE USED
 *  SADDLE     - TRANSITION STATE TO BE OPTIMIZED
 *  T=         - A TIME OF 172800.0 SECONDS REQUESTED
 *  DUMP=N     - RESTART FILE WRITTEN EVERY 7200.0 SECONDS REQUESTED
 *******************************************************************************
GEO_DAT="H2_Cl2-singlepoint.arc" GEO_REF="HCl_2molecules.arc" SADDLE  GEO-OK PM7 PRECISE
 Tranzitny stav H2 + Cl2

   ATOM   CHEMICAL          X               Y               Z
  NUMBER   SYMBOL      (ANGSTROMS)     (ANGSTROMS)     (ANGSTROMS)
 
     1       H         -5.56273000  *   2.12227000  *   0.00000000  *
     2       H         -5.52131000  *   1.00918000  *   0.00000000  *
     3      Cl         -3.41609000  *   2.92333000  *   0.00000000  *
     4      Cl         -3.31677000  *   0.83771000  *   0.00000000  *
 

           The two systems have different chain letters, so all chain letters changed to "X"

                        After docking

                     Atoms that move a lot

                     Atom Label             GEO_REF Coordinates       Movement    Integral

            (          1          X    )  -5.206   2.845   0.000        0.63         0.63
            (          2          X    )  -5.086   0.593   0.000        0.58         1.21
            (          3          X    )  -3.416   2.923   0.000        0.23         1.45
            (          4          X    )  -3.317   0.838   0.000        0.18         1.63

     Residues that move a lot and their (Movement in Angstroms, per atom)


   Difference between GEO_DAT and GEO_REF: 1.629 = total,  0.4074 = Average,  0.4545 = RMS, in Angstroms

 General Reference for PM7:
 "Optimization of Parameters for Semiempirical Methods VI: More Modifications to the 
 NDDO Approximations and Re-optimization of Parameters", J. J. P. Stewart, J. Mol. Mod., 1:32, 19 (2013)
 https://link.springer.com/article/10.1007/s00894-012-1667-x

           Empirical Formula: H2 Cl2  =     4 atoms



      MOLECULAR POINT GROUP   :   Cs  


      RHF CALCULATION, NO. OF DOUBLY OCCUPIED LEVELS = 8



  CARTESIAN GEOMETRY OF FIRST SYSTEM


   1    H         -5.20641       2.84481       0.00000
   2    H         -5.08580       0.59347       0.00000
   3   Cl         -3.41609       2.92333       0.00000
   4   Cl         -3.31677       0.83771       0.00000


  CARTESIAN GEOMETRY OF SECOND SYSTEM


   1    H         -5.35418       2.22726       0.00000
   2    H         -5.34130       1.11347       0.00000
   3   Cl         -3.18771       2.97303      -0.00000
   4   Cl         -3.14188       0.88555      -0.00000


   "DISTANCE":     0.909061


  REACTION COORDINATE VECTOR


   1    H          0.14777       0.61755       0.00000
   2    H          0.25550      -0.52000      -0.00000
   3   Cl         -0.22838      -0.04970       0.00000
   4   Cl         -0.17489      -0.04784       0.00000
 *+*+*+*+*+*+*+*+*+*+*+*+*+*+*+*+*+*+*+*+*+*+*+*+*+*+*+*+*+*+*+*+*+*+*+*+*+*+*+*+
            BAR SHORTENED BY       0.000 PERCENT
 GRADIENT CRITERION IN FLEPO =     0.200


          FOR POINT    1 SECOND STRUCTURE
 DISTANCE A - B      0.909061
 HEAT               -2.349304
 GRADIENT NORM     160.960460
 DIRECTION COSINE   -0.000000
 GEO-OK PM7 PRECISE
 Tranzitny stav H2 + Cl2

  H(          1          X    )   0.00000000 +0    0.0000000 +0    0.0000000 +0
  H(          2          X    )   1.46102945 +1    0.0000000 +0    0.0000000 +0     1     0     0
 Cl(          3          X    )   1.47302135 +1  115.5849521 +1    0.0000000 +0     1     2     0
 Cl(          4          X    )   1.44262597 +1  105.0760923 +1    0.0273369 +1     2     1     3
 
 TIME=     0.23
  REACTANTS AND PRODUCTS SWAPPED AROUND
 *+*+*+*+*+*+*+*+*+*+*+*+*+*+*+*+*+*+*+*+*+*+*+*+*+*+*+*+*+*+*+*+*+*+*+*+*+*+*+*+
            BAR SHORTENED BY       1.000 PERCENT
 GRADIENT CRITERION IN FLEPO =     2.000


          FOR POINT    2 FIRST  STRUCTURE
 DISTANCE A - B      0.899970
 HEAT              -12.134839
 GRADIENT NORM      65.188317
 DIRECTION COSINE    0.950391
 GEO-OK PM7 PRECISE
 Tranzitny stav H2 + Cl2

  H(          1          X    )   0.00000000 +0    0.0000000 +0    0.0000000 +0
  H(          2          X    )   0.78072157 +1    0.0000000 +0    0.0000000 +0     1     0     0
 Cl(          3          X    )   2.15614776 +1  110.6153683 +1    0.0000000 +0     1     2     0
 Cl(          4          X    )   2.02731208 +1   71.3598024 +1   -0.1135048 +1     3     1     2
 
 *+*+*+*+*+*+*+*+*+*+*+*+*+*+*+*+*+*+*+*+*+*+*+*+*+*+*+*+*+*+*+*+*+*+*+*+*+*+*+*+
            BAR SHORTENED BY       1.000 PERCENT
 GRADIENT CRITERION IN FLEPO =     2.000


          FOR POINT    3 FIRST  STRUCTURE
 DISTANCE A - B      0.890971
 HEAT              -11.540378
 GRADIENT NORM      67.825970
 DIRECTION COSINE    0.999573
 GEO-OK PM7 PRECISE
 Tranzitny stav H2 + Cl2

  H(          1          X    )   0.00000000 +0    0.0000000 +0    0.0000000 +0
  H(          2          X    )   0.78255360 +1    0.0000000 +0    0.0000000 +0     1     0     0
 Cl(          3          X    )   2.14491244 +1  110.6540222 +1    0.0000000 +0     1     2     0
 Cl(          4          X    )   2.02769129 +1   71.3453289 +1   -0.3745503 +1     3     1     2
 
 *+*+*+*+*+*+*+*+*+*+*+*+*+*+*+*+*+*+*+*+*+*+*+*+*+*+*+*+*+*+*+*+*+*+*+*+*+*+*+*+
            BAR SHORTENED BY       1.000 PERCENT
 GRADIENT CRITERION IN FLEPO =     2.000


          FOR POINT    4 FIRST  STRUCTURE
 DISTANCE A - B      0.882061
 HEAT              -10.929005
 GRADIENT NORM      70.174216
 DIRECTION COSINE    0.999542
 GEO-OK PM7 PRECISE
 Tranzitny stav H2 + Cl2

  H(          1          X    )   0.00000000 +0    0.0000000 +0    0.0000000 +0
  H(          2          X    )   0.78305674 +1    0.0000000 +0    0.0000000 +0     1     0     0
 Cl(          3          X    )   2.13652545 +1  110.7708890 +1    0.0000000 +0     1     2     0
 Cl(          4          X    )   2.03221905 +1   71.1976649 +1   -0.1955893 +1     3     1     2
 
 TIME=     0.34
  REACTANTS AND PRODUCTS SWAPPED AROUND
 *+*+*+*+*+*+*+*+*+*+*+*+*+*+*+*+*+*+*+*+*+*+*+*+*+*+*+*+*+*+*+*+*+*+*+*+*+*+*+*+
            BAR SHORTENED BY       0.000 PERCENT
 GRADIENT CRITERION IN FLEPO =     2.000


          FOR POINT    5 SECOND STRUCTURE
 DISTANCE A - B      0.882061
 HEAT               -6.905819
 GRADIENT NORM     127.720871
 DIRECTION COSINE    0.977680
 GEO-OK PM7 PRECISE
 Tranzitny stav H2 + Cl2

  H(          1          X    )   0.00000000 +0    0.0000000 +0    0.0000000 +0
  H(          2          X    )   1.23981346 +1    0.0000000 +0    0.0000000 +0     1     0     0
 Cl(          3          X    )   1.43605341 +1  118.5019592 +1    0.0000000 +0     1     2     0
 Cl(          4          X    )   1.43127903 +1  113.7984849 +1    0.1079724 +1     2     1     3
 
 TIME=     0.12
  REACTANTS AND PRODUCTS SWAPPED AROUND
 *+*+*+*+*+*+*+*+*+*+*+*+*+*+*+*+*+*+*+*+*+*+*+*+*+*+*+*+*+*+*+*+*+*+*+*+*+*+*+*+
            BAR SHORTENED BY       1.000 PERCENT
 GRADIENT CRITERION IN FLEPO =     2.000


          FOR POINT    6 FIRST  STRUCTURE
 DISTANCE A - B      0.873240
 HEAT              -10.468331
 GRADIENT NORM      65.483131
 DIRECTION COSINE    0.998839
 GEO-OK PM7 PRECISE
 Tranzitny stav H2 + Cl2

  H(          1          X    )   0.00000000 +0    0.0000000 +0    0.0000000 +0
  H(          2          X    )   0.77548708 +1    0.0000000 +0    0.0000000 +0     1     0     0
 Cl(          3          X    )   2.11796618 +1  109.6602041 +1    0.0000000 +0     1     2     0
 Cl(          4          X    )   2.03300201 +1   71.9295418 +1    0.1563180 +1     3     1     2
 
 *+*+*+*+*+*+*+*+*+*+*+*+*+*+*+*+*+*+*+*+*+*+*+*+*+*+*+*+*+*+*+*+*+*+*+*+*+*+*+*+
            BAR SHORTENED BY       1.000 PERCENT
 GRADIENT CRITERION IN FLEPO =     2.000


          FOR POINT    7 FIRST  STRUCTURE
 DISTANCE A - B      0.864508
 HEAT               -9.892091
 GRADIENT NORM      67.067891
 DIRECTION COSINE    0.999973
 GEO-OK PM7 PRECISE
 Tranzitny stav H2 + Cl2

  H(          1          X    )   0.00000000 +0    0.0000000 +0    0.0000000 +0
  H(          2          X    )   0.77567218 +1    0.0000000 +0    0.0000000 +0     1     0     0
 Cl(          3          X    )   2.10921381 +1  109.6792856 +1    0.0000000 +0     1     2     0
 Cl(          4          X    )   2.03489582 +1   71.8476077 +1    0.2842846 +1     3     1     2
 
 *+*+*+*+*+*+*+*+*+*+*+*+*+*+*+*+*+*+*+*+*+*+*+*+*+*+*+*+*+*+*+*+*+*+*+*+*+*+*+*+
            BAR SHORTENED BY       1.000 PERCENT
 GRADIENT CRITERION IN FLEPO =     2.000


          FOR POINT    8 FIRST  STRUCTURE
 DISTANCE A - B      0.855863
 HEAT               -9.305257
 GRADIENT NORM      68.958307
 DIRECTION COSINE    0.999987
 GEO-OK PM7 PRECISE
 Tranzitny stav H2 + Cl2

  H(          1          X    )   0.00000000 +0    0.0000000 +0    0.0000000 +0
  H(          2          X    )   0.77633440 +1    0.0000000 +0    0.0000000 +0     1     0     0
 Cl(          3          X    )   2.10064221 +1  109.7014157 +1    0.0000000 +0     1     2     0
 Cl(          4          X    )   2.03684125 +1   71.7682322 +1    0.3177216 +1     3     1     2
 
 TIME=     0.20
  REACTANTS AND PRODUCTS SWAPPED AROUND
 *+*+*+*+*+*+*+*+*+*+*+*+*+*+*+*+*+*+*+*+*+*+*+*+*+*+*+*+*+*+*+*+*+*+*+*+*+*+*+*+
            BAR SHORTENED BY       0.000 PERCENT
 GRADIENT CRITERION IN FLEPO =     2.000


          FOR POINT    9 SECOND STRUCTURE
 DISTANCE A - B      0.855863
 HEAT               -6.954475
 GRADIENT NORM     126.100877
 DIRECTION COSINE    0.999267
 GEO-OK PM7 PRECISE
 Tranzitny stav H2 + Cl2

  H(          1          X    )   0.00000000 +0    0.0000000 +0    0.0000000 +0
  H(          2          X    )   1.22566738 +1    0.0000000 +0    0.0000000 +0     1     0     0
 Cl(          3          X    )   1.43457205 +1  117.9721981 +1    0.0000000 +0     1     2     0
 Cl(          4          X    )   1.43074746 +1  114.9912663 +1   -0.3904068 +1     2     1     3
 
 TIME=     0.08
  REACTANTS AND PRODUCTS SWAPPED AROUND
 *+*+*+*+*+*+*+*+*+*+*+*+*+*+*+*+*+*+*+*+*+*+*+*+*+*+*+*+*+*+*+*+*+*+*+*+*+*+*+*+
            BAR SHORTENED BY       1.000 PERCENT
 GRADIENT CRITERION IN FLEPO =     2.000


          FOR POINT   10 FIRST  STRUCTURE
 DISTANCE A - B      0.847304
 HEAT               -8.713534
 GRADIENT NORM      70.434149
 DIRECTION COSINE    0.999374
 GEO-OK PM7 PRECISE
 Tranzitny stav H2 + Cl2

  H(          1          X    )   0.00000000 +0    0.0000000 +0    0.0000000 +0
  H(          2          X    )   0.77627328 +1    0.0000000 +0    0.0000000 +0     1     0     0
 Cl(          3          X    )   2.09198716 +1  109.6385894 +1    0.0000000 +0     1     2     0
 Cl(          4          X    )   2.03894465 +1   71.7237915 +1    0.5348627 +1     3     1     2
 
 *+*+*+*+*+*+*+*+*+*+*+*+*+*+*+*+*+*+*+*+*+*+*+*+*+*+*+*+*+*+*+*+*+*+*+*+*+*+*+*+
            BAR SHORTENED BY       1.000 PERCENT
 GRADIENT CRITERION IN FLEPO =     2.000


          FOR POINT   11 FIRST  STRUCTURE
 DISTANCE A - B      0.838831
 HEAT               -8.110710
 GRADIENT NORM      72.340154
 DIRECTION COSINE    0.999983
 GEO-OK PM7 PRECISE
 Tranzitny stav H2 + Cl2

  H(          1          X    )   0.00000000 +0    0.0000000 +0    0.0000000 +0
  H(          2          X    )   0.77697810 +1    0.0000000 +0    0.0000000 +0     1     0     0
 Cl(          3          X    )   2.08353682 +1  109.5815721 +1    0.0000000 +0     1     2     0
 Cl(          4          X    )   2.04088733 +1   71.6799483 +1    0.6155769 +1     3     1     2
 
 *+*+*+*+*+*+*+*+*+*+*+*+*+*+*+*+*+*+*+*+*+*+*+*+*+*+*+*+*+*+*+*+*+*+*+*+*+*+*+*+
            BAR SHORTENED BY       1.000 PERCENT
 GRADIENT CRITERION IN FLEPO =     2.000


          FOR POINT   12 FIRST  STRUCTURE
 DISTANCE A - B      0.830443
 HEAT               -7.497713
 GRADIENT NORM      74.271153
 DIRECTION COSINE    0.999985
 GEO-OK PM7 PRECISE
 Tranzitny stav H2 + Cl2

  H(          1          X    )   0.00000000 +0    0.0000000 +0    0.0000000 +0
  H(          2          X    )   0.77763343 +1    0.0000000 +0    0.0000000 +0     1     0     0
 Cl(          3          X    )   2.07527418 +1  109.5511453 +1    0.0000000 +0     1     2     0
 Cl(          4          X    )   2.04309650 +1   71.6251519 +1    0.4685728 +1     3     1     2
 
 TIME=     0.17
  REACTANTS AND PRODUCTS SWAPPED AROUND
 *+*+*+*+*+*+*+*+*+*+*+*+*+*+*+*+*+*+*+*+*+*+*+*+*+*+*+*+*+*+*+*+*+*+*+*+*+*+*+*+
            BAR SHORTENED BY       0.000 PERCENT
 GRADIENT CRITERION IN FLEPO =     2.000


          FOR POINT   13 SECOND STRUCTURE
 DISTANCE A - B      0.830443
 HEAT               -6.962581
 GRADIENT NORM     125.960824
 DIRECTION COSINE    0.999571
 GEO-OK PM7 PRECISE
 Tranzitny stav H2 + Cl2

  H(          1          X    )   0.00000000 +0    0.0000000 +0    0.0000000 +0
  H(          2          X    )   1.22273029 +1    0.0000000 +0    0.0000000 +0     1     0     0
 Cl(          3          X    )   1.43482527 +1  117.5708066 +1    0.0000000 +0     1     2     0
 Cl(          4          X    )   1.43170384 +1  115.5641809 +1   -0.4015227 +1     2     1     3
 
 TIME=     0.05
  REACTANTS AND PRODUCTS SWAPPED AROUND
 *+*+*+*+*+*+*+*+*+*+*+*+*+*+*+*+*+*+*+*+*+*+*+*+*+*+*+*+*+*+*+*+*+*+*+*+*+*+*+*+
            BAR SHORTENED BY       1.000 PERCENT
 GRADIENT CRITERION IN FLEPO =     2.000


          FOR POINT   14 FIRST  STRUCTURE
 DISTANCE A - B      0.822138
 HEAT               -6.876464
 GRADIENT NORM      76.117607
 DIRECTION COSINE    0.999597
 GEO-OK PM7 PRECISE
 Tranzitny stav H2 + Cl2

  H(          1          X    )   0.00000000 +0    0.0000000 +0    0.0000000 +0
  H(          2          X    )   0.77809307 +1    0.0000000 +0    0.0000000 +0     1     0     0
 Cl(          3          X    )   2.06708524 +1  109.4829412 +1    0.0000000 +0     1     2     0
 Cl(          4          X    )   2.04549837 +1   71.5857445 +1    0.5608138 +1     3     1     2
 
 TIME=     0.06
  REACTANTS AND PRODUCTS SWAPPED AROUND
 *+*+*+*+*+*+*+*+*+*+*+*+*+*+*+*+*+*+*+*+*+*+*+*+*+*+*+*+*+*+*+*+*+*+*+*+*+*+*+*+
            BAR SHORTENED BY       1.000 PERCENT
 GRADIENT CRITERION IN FLEPO =     2.000


          FOR POINT   15 SECOND STRUCTURE
 DISTANCE A - B      0.813917
 HEAT               -5.923240
 GRADIENT NORM     127.747989
 DIRECTION COSINE    0.999662
 GEO-OK PM7 PRECISE
 Tranzitny stav H2 + Cl2

  H(          1          X    )   0.00000000 +0    0.0000000 +0    0.0000000 +0
  H(          2          X    )   1.21243239 +1    0.0000000 +0    0.0000000 +0     1     0     0
 Cl(          3          X    )   1.43692698 +1  117.6219264 +1    0.0000000 +0     1     2     0
 Cl(          4          X    )   1.43813607 +1  115.4730340 +1   -0.5062405 +1     2     1     3
 
 TIME=     0.05
  REACTANTS AND PRODUCTS SWAPPED AROUND
 *+*+*+*+*+*+*+*+*+*+*+*+*+*+*+*+*+*+*+*+*+*+*+*+*+*+*+*+*+*+*+*+*+*+*+*+*+*+*+*+
            BAR SHORTENED BY       1.000 PERCENT
 GRADIENT CRITERION IN FLEPO =     2.000


          FOR POINT   16 FIRST  STRUCTURE
 DISTANCE A - B      0.805778
 HEAT               -6.253301
 GRADIENT NORM      77.790891
 DIRECTION COSINE    0.999715
 GEO-OK PM7 PRECISE
 Tranzitny stav H2 + Cl2

  H(          1          X    )   0.00000000 +0    0.0000000 +0    0.0000000 +0
  H(          2          X    )   0.77852574 +1    0.0000000 +0    0.0000000 +0     1     0     0
 Cl(          3          X    )   2.05853830 +1  109.4364741 +1    0.0000000 +0     1     2     0
 Cl(          4          X    )   2.04716557 +1   71.5537705 +1    0.6078584 +1     3     1     2
 
 *+*+*+*+*+*+*+*+*+*+*+*+*+*+*+*+*+*+*+*+*+*+*+*+*+*+*+*+*+*+*+*+*+*+*+*+*+*+*+*+
            BAR SHORTENED BY       1.000 PERCENT
 GRADIENT CRITERION IN FLEPO =     2.000


          FOR POINT   17 FIRST  STRUCTURE
 DISTANCE A - B      0.797720
 HEAT               -5.620238
 GRADIENT NORM      79.742041
 DIRECTION COSINE    0.999985
 GEO-OK PM7 PRECISE
 Tranzitny stav H2 + Cl2

  H(          1          X    )   0.00000000 +0    0.0000000 +0    0.0000000 +0
  H(          2          X    )   0.77920485 +1    0.0000000 +0    0.0000000 +0     1     0     0
 Cl(          3          X    )   2.05048576 +1  109.4159984 +1    0.0000000 +0     1     2     0
 Cl(          4          X    )   2.04951831 +1   71.5073055 +1    0.4634816 +1     3     1     2
 
 TIME=     0.11
  REACTANTS AND PRODUCTS SWAPPED AROUND
 *+*+*+*+*+*+*+*+*+*+*+*+*+*+*+*+*+*+*+*+*+*+*+*+*+*+*+*+*+*+*+*+*+*+*+*+*+*+*+*+
            BAR SHORTENED BY       1.000 PERCENT
 GRADIENT CRITERION IN FLEPO =     2.000


          FOR POINT   18 SECOND STRUCTURE
 DISTANCE A - B      0.789743
 HEAT               -4.903067
 GRADIENT NORM     129.497938
 DIRECTION COSINE    0.999725
 GEO-OK PM7 PRECISE
 Tranzitny stav H2 + Cl2

  H(          1          X    )   0.00000000 +0    0.0000000 +0    0.0000000 +0
  H(          2          X    )   1.20135881 +1    0.0000000 +0    0.0000000 +0     1     0     0
 Cl(          3          X    )   1.44388953 +1  117.5368256 +1    0.0000000 +0     1     2     0
 Cl(          4          X    )   1.44143798 +1  115.6162898 +1   -0.5397008 +1     2     1     3
 
 TIME=     0.06
  REACTANTS AND PRODUCTS SWAPPED AROUND
 *+*+*+*+*+*+*+*+*+*+*+*+*+*+*+*+*+*+*+*+*+*+*+*+*+*+*+*+*+*+*+*+*+*+*+*+*+*+*+*+
            BAR SHORTENED BY       1.000 PERCENT
 GRADIENT CRITERION IN FLEPO =     2.000


          FOR POINT   19 FIRST  STRUCTURE
 DISTANCE A - B      0.781845
 HEAT               -4.985488
 GRADIENT NORM      81.447074
 DIRECTION COSINE    0.999763
 GEO-OK PM7 PRECISE
 Tranzitny stav H2 + Cl2

  H(          1          X    )   0.00000000 +0    0.0000000 +0    0.0000000 +0
  H(          2          X    )   0.77956952 +1    0.0000000 +0    0.0000000 +0     1     0     0
 Cl(          3          X    )   2.04268182 +1  109.3980818 +1    0.0000000 +0     1     2     0
 Cl(          4          X    )   2.04500028 +1  106.8657220 +1   -0.5718871 +1     2     1     3
 
 *+*+*+*+*+*+*+*+*+*+*+*+*+*+*+*+*+*+*+*+*+*+*+*+*+*+*+*+*+*+*+*+*+*+*+*+*+*+*+*+
            BAR SHORTENED BY       1.000 PERCENT
 GRADIENT CRITERION IN FLEPO =     2.000


          FOR POINT   20 FIRST  STRUCTURE
 DISTANCE A - B      0.774027
 HEAT               -4.341669
 GRADIENT NORM      83.390862
 DIRECTION COSINE    0.999988
 GEO-OK PM7 PRECISE
 Tranzitny stav H2 + Cl2

  H(          1          X    )   0.00000000 +0    0.0000000 +0    0.0000000 +0
  H(          2          X    )   0.78028226 +1    0.0000000 +0    0.0000000 +0     1     0     0
 Cl(          3          X    )   2.03511598 +1  109.3959489 +1    0.0000000 +0     1     2     0
 Cl(          4          X    )   2.03715336 +1  107.0564108 +1   -0.6039684 +1     2     1     3
 
 TIME=     0.11
  REACTANTS AND PRODUCTS SWAPPED AROUND
 *+*+*+*+*+*+*+*+*+*+*+*+*+*+*+*+*+*+*+*+*+*+*+*+*+*+*+*+*+*+*+*+*+*+*+*+*+*+*+*+
            BAR SHORTENED BY       1.000 PERCENT
 GRADIENT CRITERION IN FLEPO =     2.000


          FOR POINT   21 SECOND STRUCTURE
 DISTANCE A - B      0.766287
 HEAT               -3.904127
 GRADIENT NORM     130.919448
 DIRECTION COSINE    0.999800
 GEO-OK PM7 PRECISE
 Tranzitny stav H2 + Cl2

  H(          1          X    )   0.00000000 +0    0.0000000 +0    0.0000000 +0
  H(          2          X    )   1.18827094 +1    0.0000000 +0    0.0000000 +0     1     0     0
 Cl(          3          X    )   1.44800525 +1  117.4665025 +1    0.0000000 +0     1     2     0
 Cl(          4          X    )   1.44761759 +1  115.8680456 +1   -0.5954961 +1     2     1     3
 
 TIME=     0.05
  REACTANTS AND PRODUCTS SWAPPED AROUND
 *+*+*+*+*+*+*+*+*+*+*+*+*+*+*+*+*+*+*+*+*+*+*+*+*+*+*+*+*+*+*+*+*+*+*+*+*+*+*+*+
            BAR SHORTENED BY       1.000 PERCENT
 GRADIENT CRITERION IN FLEPO =     2.000


          FOR POINT   22 FIRST  STRUCTURE
 DISTANCE A - B      0.758624
 HEAT               -3.697822
 GRADIENT NORM      84.504493
 DIRECTION COSINE    0.999820
 GEO-OK PM7 PRECISE
 Tranzitny stav H2 + Cl2

  H(          1          X    )   0.00000000 +0    0.0000000 +0    0.0000000 +0
  H(          2          X    )   0.78014917 +1    0.0000000 +0    0.0000000 +0     1     0     0
 Cl(          3          X    )   2.02611514 +1  109.3473671 +1    0.0000000 +0     1     2     0
 Cl(          4          X    )   2.02914143 +1  107.2798224 +1   -0.8015537 +1     2     1     3
 
 TIME=     0.16
  REACTANTS AND PRODUCTS SWAPPED AROUND
 *+*+*+*+*+*+*+*+*+*+*+*+*+*+*+*+*+*+*+*+*+*+*+*+*+*+*+*+*+*+*+*+*+*+*+*+*+*+*+*+
            BAR SHORTENED BY       1.000 PERCENT
 GRADIENT CRITERION IN FLEPO =     2.000


          FOR POINT   23 SECOND STRUCTURE
 DISTANCE A - B      0.751038
 HEAT               -2.908204
 GRADIENT NORM     132.559632
 DIRECTION COSINE    0.999787
 GEO-OK PM7 PRECISE
 Tranzitny stav H2 + Cl2

  H(          1          X    )   0.00000000 +0    0.0000000 +0    0.0000000 +0
  H(          2          X    )   1.17947687 +1    0.0000000 +0    0.0000000 +0     1     0     0
 Cl(          3          X    )   1.45268911 +1  117.3796073 +1    0.0000000 +0     1     2     0
 Cl(          4          X    )   1.45212715 +1  115.9109767 +1   -0.7656422 +1     2     1     3
 
 TIME=     0.07
  REACTANTS AND PRODUCTS SWAPPED AROUND
 *+*+*+*+*+*+*+*+*+*+*+*+*+*+*+*+*+*+*+*+*+*+*+*+*+*+*+*+*+*+*+*+*+*+*+*+*+*+*+*+
            BAR SHORTENED BY       1.000 PERCENT
 GRADIENT CRITERION IN FLEPO =     2.000


          FOR POINT   24 FIRST  STRUCTURE
 DISTANCE A - B      0.743527
 HEAT               -3.055364
 GRADIENT NORM      86.724364
 DIRECTION COSINE    0.999867
 GEO-OK PM7 PRECISE
 Tranzitny stav H2 + Cl2

  H(          1          X    )   0.00000000 +0    0.0000000 +0    0.0000000 +0
  H(          2          X    )   0.78109653 +1    0.0000000 +0    0.0000000 +0     1     0     0
 Cl(          3          X    )   2.01949669 +1  109.3034924 +1    0.0000000 +0     1     2     0
 Cl(          4          X    )   2.02214637 +1  107.5256752 +1   -0.4628567 +1     2     1     3
 
 *+*+*+*+*+*+*+*+*+*+*+*+*+*+*+*+*+*+*+*+*+*+*+*+*+*+*+*+*+*+*+*+*+*+*+*+*+*+*+*+
            BAR SHORTENED BY       1.000 PERCENT
 GRADIENT CRITERION IN FLEPO =     2.000


          FOR POINT   25 FIRST  STRUCTURE
 DISTANCE A - B      0.736092
 HEAT               -2.403585
 GRADIENT NORM      88.622426
 DIRECTION COSINE    0.999979
 GEO-OK PM7 PRECISE
 Tranzitny stav H2 + Cl2

  H(          1          X    )   0.00000000 +0    0.0000000 +0    0.0000000 +0
  H(          2          X    )   0.78161533 +1    0.0000000 +0    0.0000000 +0     1     0     0
 Cl(          3          X    )   2.01262635 +1  109.3454867 +1    0.0000000 +0     1     2     0
 Cl(          4          X    )   2.01507214 +1  107.6871865 +1   -0.6084436 +1     2     1     3
 
 TIME=     0.11
  REACTANTS AND PRODUCTS SWAPPED AROUND
 *+*+*+*+*+*+*+*+*+*+*+*+*+*+*+*+*+*+*+*+*+*+*+*+*+*+*+*+*+*+*+*+*+*+*+*+*+*+*+*+
            BAR SHORTENED BY       1.000 PERCENT
 GRADIENT CRITERION IN FLEPO =     2.000


          FOR POINT   26 SECOND STRUCTURE
 DISTANCE A - B      0.728731
 HEAT               -1.933709
 GRADIENT NORM     133.980526
 DIRECTION COSINE    0.999864
 GEO-OK PM7 PRECISE
 Tranzitny stav H2 + Cl2

  H(          1          X    )   0.00000000 +0    0.0000000 +0    0.0000000 +0
  H(          2          X    )   1.16787397 +1    0.0000000 +0    0.0000000 +0     1     0     0
 Cl(          3          X    )   1.45876077 +1  117.2543262 +1    0.0000000 +0     1     2     0
 Cl(          4          X    )   1.45804081 +1  116.2127261 +1   -0.6281593 +1     2     1     3
 
 TIME=     0.05
  REACTANTS AND PRODUCTS SWAPPED AROUND
 *+*+*+*+*+*+*+*+*+*+*+*+*+*+*+*+*+*+*+*+*+*+*+*+*+*+*+*+*+*+*+*+*+*+*+*+*+*+*+*+
            BAR SHORTENED BY       1.000 PERCENT
 GRADIENT CRITERION IN FLEPO =     2.000


          FOR POINT   27 FIRST  STRUCTURE
 DISTANCE A - B      0.721444
 HEAT               -1.751389
 GRADIENT NORM      90.114664
 DIRECTION COSINE    0.999776
 GEO-OK PM7 PRECISE
 Tranzitny stav H2 + Cl2

  H(          1          X    )   0.00000000 +0    0.0000000 +0    0.0000000 +0
  H(          2          X    )   0.78250238 +1    0.0000000 +0    0.0000000 +0     1     0     0
 Cl(          3          X    )   2.00397906 +1  109.2191384 +1    0.0000000 +0     1     2     0
 Cl(          4          X    )   2.00669216 +1  107.9285184 +1   -0.6302258 +1     2     1     3
 
 TIME=     0.05
  REACTANTS AND PRODUCTS SWAPPED AROUND
 *+*+*+*+*+*+*+*+*+*+*+*+*+*+*+*+*+*+*+*+*+*+*+*+*+*+*+*+*+*+*+*+*+*+*+*+*+*+*+*+
            BAR SHORTENED BY       1.000 PERCENT
 GRADIENT CRITERION IN FLEPO =     2.000


          FOR POINT   28 SECOND STRUCTURE
 DISTANCE A - B      0.714229
 HEAT               -0.966165
 GRADIENT NORM     135.356059
 DIRECTION COSINE    0.999609
 GEO-OK PM7 PRECISE
 Tranzitny stav H2 + Cl2

  H(          1          X    )   0.00000000 +0    0.0000000 +0    0.0000000 +0
  H(          2          X    )   1.15978859 +1    0.0000000 +0    0.0000000 +0     1     0     0
 Cl(          3          X    )   1.46195971 +1  117.1701890 +1    0.0000000 +0     1     2     0
 Cl(          4          X    )   1.46209059 +1  116.2111857 +1   -0.6105802 +1     2     1     3
 
 TIME=     0.09
  REACTANTS AND PRODUCTS SWAPPED AROUND
 *+*+*+*+*+*+*+*+*+*+*+*+*+*+*+*+*+*+*+*+*+*+*+*+*+*+*+*+*+*+*+*+*+*+*+*+*+*+*+*+
            BAR SHORTENED BY       1.000 PERCENT
 GRADIENT CRITERION IN FLEPO =     2.000


          FOR POINT   29 FIRST  STRUCTURE
 DISTANCE A - B      0.707087
 HEAT               -1.103617
 GRADIENT NORM      91.894340
 DIRECTION COSINE    0.999940
 GEO-OK PM7 PRECISE
 Tranzitny stav H2 + Cl2

  H(          1          X    )   0.00000000 +0    0.0000000 +0    0.0000000 +0
  H(          2          X    )   0.78240633 +1    0.0000000 +0    0.0000000 +0     1     0     0
 Cl(          3          X    )   1.99893210 +1  109.2204469 +1    0.0000000 +0     1     2     0
 Cl(          4          X    )   2.00002524 +1  108.1848917 +1   -0.5660554 +1     2     1     3
 
 *+*+*+*+*+*+*+*+*+*+*+*+*+*+*+*+*+*+*+*+*+*+*+*+*+*+*+*+*+*+*+*+*+*+*+*+*+*+*+*+
            BAR SHORTENED BY       1.000 PERCENT
 GRADIENT CRITERION IN FLEPO =     2.000


          FOR POINT   30 FIRST  STRUCTURE
 DISTANCE A - B      0.700016
 HEAT               -0.446608
 GRADIENT NORM      93.762254
 DIRECTION COSINE    0.999948
 GEO-OK PM7 PRECISE
 Tranzitny stav H2 + Cl2

  H(          1          X    )   0.00000000 +0    0.0000000 +0    0.0000000 +0
  H(          2          X    )   0.78340630 +1    0.0000000 +0    0.0000000 +0     1     0     0
 Cl(          3          X    )   1.99156944 +1  109.2185242 +1    0.0000000 +0     1     2     0
 Cl(          4          X    )   1.99285586 +1  108.3400547 +1   -0.4016690 +1     2     1     3
 
 TIME=     0.12
  REACTANTS AND PRODUCTS SWAPPED AROUND
 *+*+*+*+*+*+*+*+*+*+*+*+*+*+*+*+*+*+*+*+*+*+*+*+*+*+*+*+*+*+*+*+*+*+*+*+*+*+*+*+
            BAR SHORTENED BY       1.000 PERCENT
 GRADIENT CRITERION IN FLEPO =     2.000


          FOR POINT   31 SECOND STRUCTURE
 DISTANCE A - B      0.693016
 HEAT               -0.019307
 GRADIENT NORM     136.614365
 DIRECTION COSINE    0.999872
 GEO-OK PM7 PRECISE
 Tranzitny stav H2 + Cl2

  H(          1          X    )   0.00000000 +0    0.0000000 +0    0.0000000 +0
  H(          2          X    )   1.14943220 +1    0.0000000 +0    0.0000000 +0     1     0     0
 Cl(          3          X    )   1.46827317 +1  117.0323547 +1    0.0000000 +0     1     2     0
 Cl(          4          X    )   1.46731385 +1  116.4845314 +1   -0.4417648 +1     2     1     3
 
 TIME=     0.05
  REACTANTS AND PRODUCTS SWAPPED AROUND
 *+*+*+*+*+*+*+*+*+*+*+*+*+*+*+*+*+*+*+*+*+*+*+*+*+*+*+*+*+*+*+*+*+*+*+*+*+*+*+*+
            BAR SHORTENED BY       1.000 PERCENT
 GRADIENT CRITERION IN FLEPO =     2.000


          FOR POINT   32 FIRST  STRUCTURE
 DISTANCE A - B      0.686086
 HEAT                0.207513
 GRADIENT NORM      95.377437
 DIRECTION COSINE    0.999954
 GEO-OK PM7 PRECISE
 Tranzitny stav H2 + Cl2

  H(          1          X    )   0.00000000 +0    0.0000000 +0    0.0000000 +0
  H(          2          X    )   0.78336419 +1    0.0000000 +0    0.0000000 +0     1     0     0
 Cl(          3          X    )   1.98629971 +1  109.2040626 +1    0.0000000 +0     1     2     0
 Cl(          4          X    )   1.98593814 +1  108.5869440 +1   -0.4148521 +1     2     1     3
 
 TIME=     0.06
  REACTANTS AND PRODUCTS SWAPPED AROUND
 *+*+*+*+*+*+*+*+*+*+*+*+*+*+*+*+*+*+*+*+*+*+*+*+*+*+*+*+*+*+*+*+*+*+*+*+*+*+*+*+
            BAR SHORTENED BY       1.000 PERCENT
 GRADIENT CRITERION IN FLEPO =     2.000


          FOR POINT   33 SECOND STRUCTURE
 DISTANCE A - B      0.679225
 HEAT                0.919654
 GRADIENT NORM     137.886746
 DIRECTION COSINE    0.999963
 GEO-OK PM7 PRECISE
 Tranzitny stav H2 + Cl2

  H(          1          X    )   0.00000000 +0    0.0000000 +0    0.0000000 +0
  H(          2          X    )   1.14178931 +1    0.0000000 +0    0.0000000 +0     1     0     0
 Cl(          3          X    )   1.47183281 +1  116.9982692 +1    0.0000000 +0     1     2     0
 Cl(          4          X    )   1.47164026 +1  116.4564695 +1   -0.4263953 +1     2     1     3
 
 TIME=     0.05
  REACTANTS AND PRODUCTS SWAPPED AROUND
 *+*+*+*+*+*+*+*+*+*+*+*+*+*+*+*+*+*+*+*+*+*+*+*+*+*+*+*+*+*+*+*+*+*+*+*+*+*+*+*+
            BAR SHORTENED BY       1.000 PERCENT
 GRADIENT CRITERION IN FLEPO =     2.000


          FOR POINT   34 FIRST  STRUCTURE
 DISTANCE A - B      0.672433
 HEAT                0.861195
 GRADIENT NORM      97.011672
 DIRECTION COSINE    0.999891
 GEO-OK PM7 PRECISE
 Tranzitny stav H2 + Cl2

  H(          1          X    )   0.00000000 +0    0.0000000 +0    0.0000000 +0
  H(          2          X    )   0.78411834 +1    0.0000000 +0    0.0000000 +0     1     0     0
 Cl(          3          X    )   1.97872163 +1  109.2032778 +1    0.0000000 +0     1     2     0
 Cl(          4          X    )   1.97921026 +1  108.7374174 +1   -0.2487635 +1     2     1     3
 
 *+*+*+*+*+*+*+*+*+*+*+*+*+*+*+*+*+*+*+*+*+*+*+*+*+*+*+*+*+*+*+*+*+*+*+*+*+*+*+*+
            BAR SHORTENED BY       1.000 PERCENT
 GRADIENT CRITERION IN FLEPO =     2.000


          FOR POINT   35 FIRST  STRUCTURE
 DISTANCE A - B      0.665708
 HEAT                1.519484
 GRADIENT NORM      98.893778
 DIRECTION COSINE    0.999941
 GEO-OK PM7 PRECISE
 Tranzitny stav H2 + Cl2

  H(          1          X    )   0.00000000 +0    0.0000000 +0    0.0000000 +0
  H(          2          X    )   0.78454235 +1    0.0000000 +0    0.0000000 +0     1     0     0
 Cl(          3          X    )   1.97339049 +1  109.2742127 +1    0.0000000 +0     1     2     0
 Cl(          4          X    )   1.97321148 +1  108.8866647 +1   -0.3225766 +1     2     1     3
 
 TIME=     0.11
  REACTANTS AND PRODUCTS SWAPPED AROUND
 *+*+*+*+*+*+*+*+*+*+*+*+*+*+*+*+*+*+*+*+*+*+*+*+*+*+*+*+*+*+*+*+*+*+*+*+*+*+*+*+
            BAR SHORTENED BY       1.000 PERCENT
 GRADIENT CRITERION IN FLEPO =     2.000


          FOR POINT   36 SECOND STRUCTURE
 DISTANCE A - B      0.659051
 HEAT                1.837262
 GRADIENT NORM     138.960224
 DIRECTION COSINE    0.999943
 GEO-OK PM7 PRECISE
 Tranzitny stav H2 + Cl2

  H(          1          X    )   0.00000000 +0    0.0000000 +0    0.0000000 +0
  H(          2          X    )   1.13219601 +1    0.0000000 +0    0.0000000 +0     1     0     0
 Cl(          3          X    )   1.47747999 +1  116.9154624 +1    0.0000000 +0     1     2     0
 Cl(          4          X    )   1.47700261 +1  116.6543154 +1   -0.3801276 +1     2     1     3
 
 TIME=     0.05
  REACTANTS AND PRODUCTS SWAPPED AROUND
 *+*+*+*+*+*+*+*+*+*+*+*+*+*+*+*+*+*+*+*+*+*+*+*+*+*+*+*+*+*+*+*+*+*+*+*+*+*+*+*+
            BAR SHORTENED BY       1.000 PERCENT
 GRADIENT CRITERION IN FLEPO =     2.000


          FOR POINT   37 FIRST  STRUCTURE
 DISTANCE A - B      0.652461
 HEAT                2.175632
 GRADIENT NORM     100.484593
 DIRECTION COSINE    0.999956
 GEO-OK PM7 PRECISE
 Tranzitny stav H2 + Cl2

  H(          1          X    )   0.00000000 +0    0.0000000 +0    0.0000000 +0
  H(          2          X    )   0.78488317 +1    0.0000000 +0    0.0000000 +0     1     0     0
 Cl(          3          X    )   1.96685416 +1  109.3060850 +1    0.0000000 +0     1     2     0
 Cl(          4          X    )   1.96725408 +1  109.0454927 +1   -0.3642699 +1     2     1     3
 
 TIME=     0.05
  REACTANTS AND PRODUCTS SWAPPED AROUND
 *+*+*+*+*+*+*+*+*+*+*+*+*+*+*+*+*+*+*+*+*+*+*+*+*+*+*+*+*+*+*+*+*+*+*+*+*+*+*+*+
            BAR SHORTENED BY       1.000 PERCENT
 GRADIENT CRITERION IN FLEPO =     2.000


          FOR POINT   38 SECOND STRUCTURE
 DISTANCE A - B      0.645936
 HEAT                2.745199
 GRADIENT NORM     140.103269
 DIRECTION COSINE    0.999960
 GEO-OK PM7 PRECISE
 Tranzitny stav H2 + Cl2

  H(          1          X    )   0.00000000 +0    0.0000000 +0    0.0000000 +0
  H(          2          X    )   1.12509316 +1    0.0000000 +0    0.0000000 +0     1     0     0
 Cl(          3          X    )   1.48094266 +1  116.8830695 +1    0.0000000 +0     1     2     0
 Cl(          4          X    )   1.48108595 +1  116.6213439 +1   -0.3699694 +1     2     1     3
 
 TIME=     0.05
  REACTANTS AND PRODUCTS SWAPPED AROUND
 *+*+*+*+*+*+*+*+*+*+*+*+*+*+*+*+*+*+*+*+*+*+*+*+*+*+*+*+*+*+*+*+*+*+*+*+*+*+*+*+
            BAR SHORTENED BY       1.000 PERCENT
 GRADIENT CRITERION IN FLEPO =     2.000


          FOR POINT   39 FIRST  STRUCTURE
 DISTANCE A - B      0.639477
 HEAT                2.829403
 GRADIENT NORM     102.091648
 DIRECTION COSINE    0.999965
 GEO-OK PM7 PRECISE
 Tranzitny stav H2 + Cl2

  H(          1          X    )   0.00000000 +0    0.0000000 +0    0.0000000 +0
  H(          2          X    )   0.78532861 +1    0.0000000 +0    0.0000000 +0     1     0     0
 Cl(          3          X    )   1.96066254 +1  109.3588381 +1    0.0000000 +0     1     2     0
 Cl(          4          X    )   1.96112980 +1  109.1758722 +1   -0.1993675 +1     2     1     3
 
 TIME=     0.05
  REACTANTS AND PRODUCTS SWAPPED AROUND
 *+*+*+*+*+*+*+*+*+*+*+*+*+*+*+*+*+*+*+*+*+*+*+*+*+*+*+*+*+*+*+*+*+*+*+*+*+*+*+*+
            BAR SHORTENED BY       1.000 PERCENT
 GRADIENT CRITERION IN FLEPO =     2.000


          FOR POINT   40 SECOND STRUCTURE
 DISTANCE A - B      0.633082
 HEAT                3.645787
 GRADIENT NORM     141.567902
 DIRECTION COSINE    0.999906
 GEO-OK PM7 PRECISE
 Tranzitny stav H2 + Cl2

  H(          1          X    )   0.00000000 +0    0.0000000 +0    0.0000000 +0
  H(          2          X    )   1.12169551 +1    0.0000000 +0    0.0000000 +0     1     0     0
 Cl(          3          X    )   1.48557342 +1  116.7840767 +1    0.0000000 +0     1     2     0
 Cl(          4          X    )   1.48572302 +1  116.5233149 +1   -0.3676871 +1     2     1     3
 
 TIME=     0.03
  REACTANTS AND PRODUCTS SWAPPED AROUND
 *+*+*+*+*+*+*+*+*+*+*+*+*+*+*+*+*+*+*+*+*+*+*+*+*+*+*+*+*+*+*+*+*+*+*+*+*+*+*+*+
            BAR SHORTENED BY       1.000 PERCENT
 GRADIENT CRITERION IN FLEPO =     2.000


          FOR POINT   41 FIRST  STRUCTURE
 DISTANCE A - B      0.626751
 HEAT                3.481245
 GRADIENT NORM     103.884219
 DIRECTION COSINE    0.999874
 GEO-OK PM7 PRECISE
 Tranzitny stav H2 + Cl2

  H(          1          X    )   0.00000000 +0    0.0000000 +0    0.0000000 +0
  H(          2          X    )   0.78591342 +1    0.0000000 +0    0.0000000 +0     1     0     0
 Cl(          3          X    )   1.95521117 +1  109.4468587 +1    0.0000000 +0     1     2     0
 Cl(          4          X    )   1.95551265 +1  109.2823697 +1   -0.2946486 +1     2     1     3
 
 *+*+*+*+*+*+*+*+*+*+*+*+*+*+*+*+*+*+*+*+*+*+*+*+*+*+*+*+*+*+*+*+*+*+*+*+*+*+*+*+
            BAR SHORTENED BY       1.000 PERCENT
 GRADIENT CRITERION IN FLEPO =     2.000


          FOR POINT   42 FIRST  STRUCTURE
 DISTANCE A - B      0.620484
 HEAT                4.137673
 GRADIENT NORM     105.593895
 DIRECTION COSINE    0.999996
 GEO-OK PM7 PRECISE
 Tranzitny stav H2 + Cl2

  H(          1          X    )   0.00000000 +0    0.0000000 +0    0.0000000 +0
  H(          2          X    )   0.78651979 +1    0.0000000 +0    0.0000000 +0     1     0     0
 Cl(          3          X    )   1.94935826 +1  109.5468929 +1    0.0000000 +0     1     2     0
 Cl(          4          X    )   1.94984432 +1  109.3639985 +1   -0.3406442 +1     2     1     3
 
 TIME=     0.11
  REACTANTS AND PRODUCTS SWAPPED AROUND
 *+*+*+*+*+*+*+*+*+*+*+*+*+*+*+*+*+*+*+*+*+*+*+*+*+*+*+*+*+*+*+*+*+*+*+*+*+*+*+*+
            BAR SHORTENED BY       1.000 PERCENT
 GRADIENT CRITERION IN FLEPO =     2.000


          FOR POINT   43 SECOND STRUCTURE
 DISTANCE A - B      0.614279
 HEAT                4.515792
 GRADIENT NORM     142.099470
 DIRECTION COSINE    0.999912
 GEO-OK PM7 PRECISE
 Tranzitny stav H2 + Cl2

  H(          1          X    )   0.00000000 +0    0.0000000 +0    0.0000000 +0
  H(          2          X    )   1.10993269 +1    0.0000000 +0    0.0000000 +0     1     0     0
 Cl(          3          X    )   1.49031083 +1  116.8345559 +1    0.0000000 +0     1     2     0
 Cl(          4          X    )   1.49072067 +1  116.7044568 +1   -0.3740073 +1     2     1     3
 
 TIME=     0.05
  REACTANTS AND PRODUCTS SWAPPED AROUND
 *+*+*+*+*+*+*+*+*+*+*+*+*+*+*+*+*+*+*+*+*+*+*+*+*+*+*+*+*+*+*+*+*+*+*+*+*+*+*+*+
            BAR SHORTENED BY       1.000 PERCENT
 GRADIENT CRITERION IN FLEPO =     2.000


          FOR POINT   44 FIRST  STRUCTURE
 DISTANCE A - B      0.608136
 HEAT                4.789226
 GRADIENT NORM     106.957177
 DIRECTION COSINE    0.999954
 GEO-OK PM7 PRECISE
 Tranzitny stav H2 + Cl2

  H(          1          X    )   0.00000000 +0    0.0000000 +0    0.0000000 +0
  H(          2          X    )   0.78671424 +1    0.0000000 +0    0.0000000 +0     1     0     0
 Cl(          3          X    )   1.94315443 +1  109.5830934 +1    0.0000000 +0     1     2     0
 Cl(          4          X    )   1.94402939 +1  109.5070585 +1   -0.3596626 +1     2     1     3
 
 TIME=     0.05
  REACTANTS AND PRODUCTS SWAPPED AROUND
 *+*+*+*+*+*+*+*+*+*+*+*+*+*+*+*+*+*+*+*+*+*+*+*+*+*+*+*+*+*+*+*+*+*+*+*+*+*+*+*+
            BAR SHORTENED BY       1.000 PERCENT
 GRADIENT CRITERION IN FLEPO =     2.000


          FOR POINT   45 SECOND STRUCTURE
 DISTANCE A - B      0.602055
 HEAT                5.383832
 GRADIENT NORM     143.388590
 DIRECTION COSINE    0.999893
 GEO-OK PM7 PRECISE
 Tranzitny stav H2 + Cl2

  H(          1          X    )   0.00000000 +0    0.0000000 +0    0.0000000 +0
  H(          2          X    )   1.10670049 +1    0.0000000 +0    0.0000000 +0     1     0     0
 Cl(          3          X    )   1.49468574 +1  116.7405185 +1    0.0000000 +0     1     2     0
 Cl(          4          X    )   1.49510270 +1  116.6111371 +1   -0.3735550 +1     2     1     3
 
 TIME=     0.03
  REACTANTS AND PRODUCTS SWAPPED AROUND
 *+*+*+*+*+*+*+*+*+*+*+*+*+*+*+*+*+*+*+*+*+*+*+*+*+*+*+*+*+*+*+*+*+*+*+*+*+*+*+*+
            BAR SHORTENED BY       1.000 PERCENT
 GRADIENT CRITERION IN FLEPO =     2.000


          FOR POINT   46 FIRST  STRUCTURE
 DISTANCE A - B      0.596034
 HEAT                5.438375
 GRADIENT NORM     108.648651
 DIRECTION COSINE    0.999862
 GEO-OK PM7 PRECISE
 Tranzitny stav H2 + Cl2

  H(          1          X    )   0.00000000 +0    0.0000000 +0    0.0000000 +0
  H(          2          X    )   0.78727752 +1    0.0000000 +0    0.0000000 +0     1     0     0
 Cl(          3          X    )   1.93833240 +1  109.6336893 +1    0.0000000 +0     1     2     0
 Cl(          4          X    )   1.93830591 +1  109.6442300 +1   -0.3421419 +1     2     1     3
 
 TIME=     0.06
  REACTANTS AND PRODUCTS SWAPPED AROUND
 *+*+*+*+*+*+*+*+*+*+*+*+*+*+*+*+*+*+*+*+*+*+*+*+*+*+*+*+*+*+*+*+*+*+*+*+*+*+*+*+
            BAR SHORTENED BY       1.000 PERCENT
 GRADIENT CRITERION IN FLEPO =     2.000


          FOR POINT   47 SECOND STRUCTURE
 DISTANCE A - B      0.590074
 HEAT                6.232697
 GRADIENT NORM     143.907615
 DIRECTION COSINE    0.999920
 GEO-OK PM7 PRECISE
 Tranzitny stav H2 + Cl2

  H(          1          X    )   0.00000000 +0    0.0000000 +0    0.0000000 +0
  H(          2          X    )   1.09647574 +1    0.0000000 +0    0.0000000 +0     1     0     0
 Cl(          3          X    )   1.49949195 +1  116.7498796 +1    0.0000000 +0     1     2     0
 Cl(          4          X    )   1.49967079 +1  116.7706348 +1   -0.3600425 +1     2     1     3
 
 TIME=     0.05
  REACTANTS AND PRODUCTS SWAPPED AROUND
 *+*+*+*+*+*+*+*+*+*+*+*+*+*+*+*+*+*+*+*+*+*+*+*+*+*+*+*+*+*+*+*+*+*+*+*+*+*+*+*+
            BAR SHORTENED BY       1.000 PERCENT
 GRADIENT CRITERION IN FLEPO =     2.000


          FOR POINT   48 FIRST  STRUCTURE
 DISTANCE A - B      0.584173
 HEAT                6.082324
 GRADIENT NORM     110.052005
 DIRECTION COSINE    0.999961
 GEO-OK PM7 PRECISE
 Tranzitny stav H2 + Cl2

  H(          1          X    )   0.00000000 +0    0.0000000 +0    0.0000000 +0
  H(          2          X    )   0.78733727 +1    0.0000000 +0    0.0000000 +0     1     0     0
 Cl(          3          X    )   1.93293876 +1  109.7053872 +1    0.0000000 +0     1     2     0
 Cl(          4          X    )   1.93346121 +1  109.7780818 +1   -0.2919496 +1     2     1     3
 
 *+*+*+*+*+*+*+*+*+*+*+*+*+*+*+*+*+*+*+*+*+*+*+*+*+*+*+*+*+*+*+*+*+*+*+*+*+*+*+*+
            BAR SHORTENED BY       1.000 PERCENT
 GRADIENT CRITERION IN FLEPO =     2.000


          FOR POINT   49 FIRST  STRUCTURE
 DISTANCE A - B      0.578331
 HEAT                6.730083
 GRADIENT NORM     111.723573
 DIRECTION COSINE    0.999986
 GEO-OK PM7 PRECISE
 Tranzitny stav H2 + Cl2

  H(          1          X    )   0.00000000 +0    0.0000000 +0    0.0000000 +0
  H(          2          X    )   0.78815512 +1    0.0000000 +0    0.0000000 +0     1     0     0
 Cl(          3          X    )   1.92746143 +1  109.7649129 +1    0.0000000 +0     1     2     0
 Cl(          4          X    )   1.92791167 +1  109.8755755 +1   -0.2924004 +1     2     1     3
 
 TIME=     0.11
  REACTANTS AND PRODUCTS SWAPPED AROUND
 *+*+*+*+*+*+*+*+*+*+*+*+*+*+*+*+*+*+*+*+*+*+*+*+*+*+*+*+*+*+*+*+*+*+*+*+*+*+*+*+
            BAR SHORTENED BY       1.000 PERCENT
 GRADIENT CRITERION IN FLEPO =     2.000


          FOR POINT   50 SECOND STRUCTURE
 DISTANCE A - B      0.572548
 HEAT                7.063468
 GRADIENT NORM     144.681829
 DIRECTION COSINE    0.999928
 GEO-OK PM7 PRECISE
 Tranzitny stav H2 + Cl2

  H(          1          X    )   0.00000000 +0    0.0000000 +0    0.0000000 +0
  H(          2          X    )   1.08940035 +1    0.0000000 +0    0.0000000 +0     1     0     0
 Cl(          3          X    )   1.50300380 +1  116.7536545 +1    0.0000000 +0     1     2     0
 Cl(          4          X    )   1.50343068 +1  116.7598252 +1   -0.2810049 +1     2     1     3
 
 TIME=     0.06
  REACTANTS AND PRODUCTS SWAPPED AROUND
 *+*+*+*+*+*+*+*+*+*+*+*+*+*+*+*+*+*+*+*+*+*+*+*+*+*+*+*+*+*+*+*+*+*+*+*+*+*+*+*+
            BAR SHORTENED BY       1.000 PERCENT
 GRADIENT CRITERION IN FLEPO =     2.000


          FOR POINT   51 FIRST  STRUCTURE
 DISTANCE A - B      0.566823
 HEAT                7.373046
 GRADIENT NORM     113.089018
 DIRECTION COSINE    0.999966
 GEO-OK PM7 PRECISE
 Tranzitny stav H2 + Cl2

  H(          1          X    )   0.00000000 +0    0.0000000 +0    0.0000000 +0
  H(          2          X    )   0.78832225 +1    0.0000000 +0    0.0000000 +0     1     0     0
 Cl(          3          X    )   1.92269324 +1  109.8247943 +1    0.0000000 +0     1     2     0
 Cl(          4          X    )   1.92236111 +1  110.0052468 +1   -0.2723236 +1     2     1     3
 
 TIME=     0.05
  REACTANTS AND PRODUCTS SWAPPED AROUND
 *+*+*+*+*+*+*+*+*+*+*+*+*+*+*+*+*+*+*+*+*+*+*+*+*+*+*+*+*+*+*+*+*+*+*+*+*+*+*+*+
            BAR SHORTENED BY       1.000 PERCENT
 GRADIENT CRITERION IN FLEPO =     2.000


          FOR POINT   52 SECOND STRUCTURE
 DISTANCE A - B      0.561154
 HEAT                7.886597
 GRADIENT NORM     145.767498
 DIRECTION COSINE    0.999914
 GEO-OK PM7 PRECISE
 Tranzitny stav H2 + Cl2

  H(          1          X    )   0.00000000 +0    0.0000000 +0    0.0000000 +0
  H(          2          X    )   1.08638956 +1    0.0000000 +0    0.0000000 +0     1     0     0
 Cl(          3          X    )   1.50706397 +1  116.6657307 +1    0.0000000 +0     1     2     0
 Cl(          4          X    )   1.50748639 +1  116.6736326 +1   -0.2807172 +1     2     1     3
 
 TIME=     0.03
  REACTANTS AND PRODUCTS SWAPPED AROUND
 *+*+*+*+*+*+*+*+*+*+*+*+*+*+*+*+*+*+*+*+*+*+*+*+*+*+*+*+*+*+*+*+*+*+*+*+*+*+*+*+
            BAR SHORTENED BY       1.000 PERCENT
 GRADIENT CRITERION IN FLEPO =     2.000


          FOR POINT   53 FIRST  STRUCTURE
 DISTANCE A - B      0.555543
 HEAT                8.012395
 GRADIENT NORM     114.772774
 DIRECTION COSINE    0.999869
 GEO-OK PM7 PRECISE
 Tranzitny stav H2 + Cl2

  H(          1          X    )   0.00000000 +0    0.0000000 +0    0.0000000 +0
  H(          2          X    )   0.78901921 +1    0.0000000 +0    0.0000000 +0     1     0     0
 Cl(          3          X    )   1.91779417 +1  109.9319689 +1    0.0000000 +0     1     2     0
 Cl(          4          X    )   1.91780999 +1  110.0770081 +1   -0.2326366 +1     2     1     3
 
 TIME=     0.05
  REACTANTS AND PRODUCTS SWAPPED AROUND
 *+*+*+*+*+*+*+*+*+*+*+*+*+*+*+*+*+*+*+*+*+*+*+*+*+*+*+*+*+*+*+*+*+*+*+*+*+*+*+*+
            BAR SHORTENED BY       1.000 PERCENT
 GRADIENT CRITERION IN FLEPO =     2.000


          FOR POINT   54 SECOND STRUCTURE
 DISTANCE A - B      0.549987
 HEAT                8.690534
 GRADIENT NORM     145.899085
 DIRECTION COSINE    0.999915
 GEO-OK PM7 PRECISE
 Tranzitny stav H2 + Cl2

  H(          1          X    )   0.00000000 +0    0.0000000 +0    0.0000000 +0
  H(          2          X    )   1.07554961 +1    0.0000000 +0    0.0000000 +0     1     0     0
 Cl(          3          X    )   1.51285933 +1  116.7758681 +1    0.0000000 +0     1     2     0
 Cl(          4          X    )   1.51404933 +1  116.8492350 +1   -0.2433954 +1     2     1     3
 
 TIME=     0.05
  REACTANTS AND PRODUCTS SWAPPED AROUND
 *+*+*+*+*+*+*+*+*+*+*+*+*+*+*+*+*+*+*+*+*+*+*+*+*+*+*+*+*+*+*+*+*+*+*+*+*+*+*+*+
            BAR SHORTENED BY       1.000 PERCENT
 GRADIENT CRITERION IN FLEPO =     2.000


          FOR POINT   55 FIRST  STRUCTURE
 DISTANCE A - B      0.544487
 HEAT                8.645779
 GRADIENT NORM     116.016514
 DIRECTION COSINE    0.999948
 GEO-OK PM7 PRECISE
 Tranzitny stav H2 + Cl2

  H(          1          X    )   0.00000000 +0    0.0000000 +0    0.0000000 +0
  H(          2          X    )   0.78893329 +1    0.0000000 +0    0.0000000 +0     1     0     0
 Cl(          3          X    )   1.91329987 +1  110.0209431 +1    0.0000000 +0     1     2     0
 Cl(          4          X    )   1.91304593 +1  110.1939465 +1   -0.2256084 +1     2     1     3
 
 *+*+*+*+*+*+*+*+*+*+*+*+*+*+*+*+*+*+*+*+*+*+*+*+*+*+*+*+*+*+*+*+*+*+*+*+*+*+*+*+
            BAR SHORTENED BY       1.000 PERCENT
 GRADIENT CRITERION IN FLEPO =     2.000


          FOR POINT   56 FIRST  STRUCTURE
 DISTANCE A - B      0.539043
 HEAT                9.281824
 GRADIENT NORM     117.621066
 DIRECTION COSINE    0.999990
 GEO-OK PM7 PRECISE
 Tranzitny stav H2 + Cl2

  H(          1          X    )   0.00000000 +0    0.0000000 +0    0.0000000 +0
  H(          2          X    )   0.78957454 +1    0.0000000 +0    0.0000000 +0     1     0     0
 Cl(          3          X    )   1.90850756 +1  110.1149639 +1    0.0000000 +0     1     2     0
 Cl(          4          X    )   1.90874506 +1  110.2774827 +1   -0.2293477 +1     2     1     3
 
 TIME=     0.11
  REACTANTS AND PRODUCTS SWAPPED AROUND
 *+*+*+*+*+*+*+*+*+*+*+*+*+*+*+*+*+*+*+*+*+*+*+*+*+*+*+*+*+*+*+*+*+*+*+*+*+*+*+*+
            BAR SHORTENED BY       1.000 PERCENT
 GRADIENT CRITERION IN FLEPO =     2.000


          FOR POINT   57 SECOND STRUCTURE
 DISTANCE A - B      0.533652
 HEAT                9.475883
 GRADIENT NORM     146.608251
 DIRECTION COSINE    0.999971
 GEO-OK PM7 PRECISE
 Tranzitny stav H2 + Cl2

  H(          1          X    )   0.00000000 +0    0.0000000 +0    0.0000000 +0
  H(          2          X    )   1.06944001 +1    0.0000000 +0    0.0000000 +0     1     0     0
 Cl(          3          X    )   1.51627815 +1  116.7466605 +1    0.0000000 +0     1     2     0
 Cl(          4          X    )   1.51666024 +1  116.8349452 +1   -0.2600857 +1     2     1     3
 
 TIME=     0.06
  REACTANTS AND PRODUCTS SWAPPED AROUND
 *+*+*+*+*+*+*+*+*+*+*+*+*+*+*+*+*+*+*+*+*+*+*+*+*+*+*+*+*+*+*+*+*+*+*+*+*+*+*+*+
            BAR SHORTENED BY       1.000 PERCENT
 GRADIENT CRITERION IN FLEPO =     2.000


          FOR POINT   58 FIRST  STRUCTURE
 DISTANCE A - B      0.528316
 HEAT                9.912284
 GRADIENT NORM     118.909686
 DIRECTION COSINE    0.999984
 GEO-OK PM7 PRECISE
 Tranzitny stav H2 + Cl2

  H(          1          X    )   0.00000000 +0    0.0000000 +0    0.0000000 +0
  H(          2          X    )   0.78980364 +1    0.0000000 +0    0.0000000 +0     1     0     0
 Cl(          3          X    )   1.90361631 +1  110.2185301 +1    0.0000000 +0     1     2     0
 Cl(          4          X    )   1.90401055 +1  110.3505272 +1   -0.2526652 +1     2     1     3
 
 TIME=     0.05
  REACTANTS AND PRODUCTS SWAPPED AROUND
 *+*+*+*+*+*+*+*+*+*+*+*+*+*+*+*+*+*+*+*+*+*+*+*+*+*+*+*+*+*+*+*+*+*+*+*+*+*+*+*+
            BAR SHORTENED BY       1.000 PERCENT
 GRADIENT CRITERION IN FLEPO =     2.000


          FOR POINT   59 SECOND STRUCTURE
 DISTANCE A - B      0.523032
 HEAT               10.252813
 GRADIENT NORM     147.514773
 DIRECTION COSINE    0.999956
 GEO-OK PM7 PRECISE
 Tranzitny stav H2 + Cl2

  H(          1          X    )   0.00000000 +0    0.0000000 +0    0.0000000 +0
  H(          2          X    )   1.06664364 +1    0.0000000 +0    0.0000000 +0     1     0     0
 Cl(          3          X    )   1.52002996 +1  116.6651247 +1    0.0000000 +0     1     2     0
 Cl(          4          X    )   1.52041315 +1  116.7538724 +1   -0.2598530 +1     2     1     3
 
 TIME=     0.03
  REACTANTS AND PRODUCTS SWAPPED AROUND
 *+*+*+*+*+*+*+*+*+*+*+*+*+*+*+*+*+*+*+*+*+*+*+*+*+*+*+*+*+*+*+*+*+*+*+*+*+*+*+*+
            BAR SHORTENED BY       1.000 PERCENT
 GRADIENT CRITERION IN FLEPO =     2.000


          FOR POINT   60 FIRST  STRUCTURE
 DISTANCE A - B      0.517802
 HEAT               10.538324
 GRADIENT NORM     120.446369
 DIRECTION COSINE    0.999917
 GEO-OK PM7 PRECISE
 Tranzitny stav H2 + Cl2

  H(          1          X    )   0.00000000 +0    0.0000000 +0    0.0000000 +0
  H(          2          X    )   0.79048616 +1    0.0000000 +0    0.0000000 +0     1     0     0
 Cl(          3          X    )   1.89909876 +1  110.3113250 +1    0.0000000 +0     1     2     0
 Cl(          4          X    )   1.89953219 +1  110.4222441 +1   -0.2515972 +1     2     1     3
 
 TIME=     0.05
  REACTANTS AND PRODUCTS SWAPPED AROUND
 *+*+*+*+*+*+*+*+*+*+*+*+*+*+*+*+*+*+*+*+*+*+*+*+*+*+*+*+*+*+*+*+*+*+*+*+*+*+*+*+
            BAR SHORTENED BY       1.000 PERCENT
 GRADIENT CRITERION IN FLEPO =     2.000


          FOR POINT   61 SECOND STRUCTURE
 DISTANCE A - B      0.512624
 HEAT               11.013836
 GRADIENT NORM     147.578901
 DIRECTION COSINE    0.999934
 GEO-OK PM7 PRECISE
 Tranzitny stav H2 + Cl2

  H(          1          X    )   0.00000000 +0    0.0000000 +0    0.0000000 +0
  H(          2          X    )   1.05764244 +1    0.0000000 +0    0.0000000 +0     1     0     0
 Cl(          3          X    )   1.52495208 +1  116.8305952 +1    0.0000000 +0     1     2     0
 Cl(          4          X    )   1.52720824 +1  116.8020832 +1   -0.2434728 +1     2     1     3
 
 TIME=     0.05
  REACTANTS AND PRODUCTS SWAPPED AROUND
 *+*+*+*+*+*+*+*+*+*+*+*+*+*+*+*+*+*+*+*+*+*+*+*+*+*+*+*+*+*+*+*+*+*+*+*+*+*+*+*+
            BAR SHORTENED BY       1.000 PERCENT
 GRADIENT CRITERION IN FLEPO =     2.000


          FOR POINT   62 FIRST  STRUCTURE
 DISTANCE A - B      0.507498
 HEAT               11.157897
 GRADIENT NORM     121.695671
 DIRECTION COSINE    0.999936
 GEO-OK PM7 PRECISE
 Tranzitny stav H2 + Cl2

  H(          1          X    )   0.00000000 +0    0.0000000 +0    0.0000000 +0
  H(          2          X    )   0.79054845 +1    0.0000000 +0    0.0000000 +0     1     0     0
 Cl(          3          X    )   1.89491066 +1  110.4327536 +1    0.0000000 +0     1     2     0
 Cl(          4          X    )   1.89556917 +1  110.4992300 +1   -0.2070140 +1     2     1     3
 
 TIME=     0.05
  REACTANTS AND PRODUCTS SWAPPED AROUND
 *+*+*+*+*+*+*+*+*+*+*+*+*+*+*+*+*+*+*+*+*+*+*+*+*+*+*+*+*+*+*+*+*+*+*+*+*+*+*+*+
            BAR SHORTENED BY       1.000 PERCENT
 GRADIENT CRITERION IN FLEPO =     2.000


          FOR POINT   63 SECOND STRUCTURE
 DISTANCE A - B      0.502423
 HEAT               11.764784
 GRADIENT NORM     148.380183
 DIRECTION COSINE    0.999928
 GEO-OK PM7 PRECISE
 Tranzitny stav H2 + Cl2

  H(          1          X    )   0.00000000 +0    0.0000000 +0    0.0000000 +0
  H(          2          X    )   1.05497149 +1    0.0000000 +0    0.0000000 +0     1     0     0
 Cl(          3          X    )   1.52853666 +1  116.7516527 +1    0.0000000 +0     1     2     0
 Cl(          4          X    )   1.53077715 +1  116.7239867 +1   -0.2429357 +1     2     1     3
 
 TIME=     0.03
  REACTANTS AND PRODUCTS SWAPPED AROUND
 *+*+*+*+*+*+*+*+*+*+*+*+*+*+*+*+*+*+*+*+*+*+*+*+*+*+*+*+*+*+*+*+*+*+*+*+*+*+*+*+
            BAR SHORTENED BY       1.000 PERCENT
 GRADIENT CRITERION IN FLEPO =     2.000


          FOR POINT   64 FIRST  STRUCTURE
 DISTANCE A - B      0.497399
 HEAT               11.772997
 GRADIENT NORM     123.168520
 DIRECTION COSINE    0.999879
 GEO-OK PM7 PRECISE
 Tranzitny stav H2 + Cl2

  H(          1          X    )   0.00000000 +0    0.0000000 +0    0.0000000 +0
  H(          2          X    )   0.79113325 +1    0.0000000 +0    0.0000000 +0     1     0     0
 Cl(          3          X    )   1.89070166 +1  110.5257849 +1    0.0000000 +0     1     2     0
 Cl(          4          X    )   1.89167674 +1  110.5784890 +1   -0.2226678 +1     2     1     3
 
 TIME=     0.05
  REACTANTS AND PRODUCTS SWAPPED AROUND
 *+*+*+*+*+*+*+*+*+*+*+*+*+*+*+*+*+*+*+*+*+*+*+*+*+*+*+*+*+*+*+*+*+*+*+*+*+*+*+*+
            BAR SHORTENED BY       1.000 PERCENT
 GRADIENT CRITERION IN FLEPO =     2.000


          FOR POINT   65 SECOND STRUCTURE
 DISTANCE A - B      0.492425
 HEAT               12.500258
 GRADIENT NORM     148.714053
 DIRECTION COSINE    0.999950
 GEO-OK PM7 PRECISE
 Tranzitny stav H2 + Cl2

  H(          1          X    )   0.00000000 +0    0.0000000 +0    0.0000000 +0
  H(          2          X    )   1.04793527 +1    0.0000000 +0    0.0000000 +0     1     0     0
 Cl(          3          X    )   1.53359151 +1  116.7822442 +1    0.0000000 +0     1     2     0
 Cl(          4          X    )   1.53341776 +1  116.7575347 +1   -0.2650490 +1     2     1     3
 
 TIME=     0.05
  REACTANTS AND PRODUCTS SWAPPED AROUND
 *+*+*+*+*+*+*+*+*+*+*+*+*+*+*+*+*+*+*+*+*+*+*+*+*+*+*+*+*+*+*+*+*+*+*+*+*+*+*+*+
            BAR SHORTENED BY       1.000 PERCENT
 GRADIENT CRITERION IN FLEPO =     2.000


          FOR POINT   66 FIRST  STRUCTURE
 DISTANCE A - B      0.487500
 HEAT               12.381163
 GRADIENT NORM     124.365396
 DIRECTION COSINE    0.999964
 GEO-OK PM7 PRECISE
 Tranzitny stav H2 + Cl2

  H(          1          X    )   0.00000000 +0    0.0000000 +0    0.0000000 +0
  H(          2          X    )   0.79133334 +1    0.0000000 +0    0.0000000 +0     1     0     0
 Cl(          3          X    )   1.88706940 +1  110.6514116 +1    0.0000000 +0     1     2     0
 Cl(          4          X    )   1.88683330 +1  110.6266393 +1   -0.2486635 +1     2     1     3
 
 *+*+*+*+*+*+*+*+*+*+*+*+*+*+*+*+*+*+*+*+*+*+*+*+*+*+*+*+*+*+*+*+*+*+*+*+*+*+*+*+
            BAR SHORTENED BY       1.000 PERCENT
 GRADIENT CRITERION IN FLEPO =     2.000


          FOR POINT   67 FIRST  STRUCTURE
 DISTANCE A - B      0.482625
 HEAT               12.990788
 GRADIENT NORM     125.774136
 DIRECTION COSINE    0.999995
 GEO-OK PM7 PRECISE
 Tranzitny stav H2 + Cl2

  H(          1          X    )   0.00000000 +0    0.0000000 +0    0.0000000 +0
  H(          2          X    )   0.79189595 +1    0.0000000 +0    0.0000000 +0     1     0     0
 Cl(          3          X    )   1.88307430 +1  110.7269694 +1    0.0000000 +0     1     2     0
 Cl(          4          X    )   1.88294890 +1  110.7194314 +1   -0.2386016 +1     2     1     3
 
 TIME=     0.12
  REACTANTS AND PRODUCTS SWAPPED AROUND
 *+*+*+*+*+*+*+*+*+*+*+*+*+*+*+*+*+*+*+*+*+*+*+*+*+*+*+*+*+*+*+*+*+*+*+*+*+*+*+*+
            BAR SHORTENED BY       1.000 PERCENT
 GRADIENT CRITERION IN FLEPO =     2.000


          FOR POINT   68 SECOND STRUCTURE
 DISTANCE A - B      0.477799
 HEAT               13.219681
 GRADIENT NORM     149.433780
 DIRECTION COSINE    0.999909
 GEO-OK PM7 PRECISE
 Tranzitny stav H2 + Cl2

  H(          1          X    )   0.00000000 +0    0.0000000 +0    0.0000000 +0
  H(          2          X    )   1.04537488 +1    0.0000000 +0    0.0000000 +0     1     0     0
 Cl(          3          X    )   1.53698273 +1  116.7082170 +1    0.0000000 +0     1     2     0
 Cl(          4          X    )   1.53680972 +1  116.6836688 +1   -0.2646255 +1     2     1     3
 
 TIME=     0.02
  REACTANTS AND PRODUCTS SWAPPED AROUND
 *+*+*+*+*+*+*+*+*+*+*+*+*+*+*+*+*+*+*+*+*+*+*+*+*+*+*+*+*+*+*+*+*+*+*+*+*+*+*+*+
            BAR SHORTENED BY       1.000 PERCENT
 GRADIENT CRITERION IN FLEPO =     2.000


          FOR POINT   69 FIRST  STRUCTURE
 DISTANCE A - B      0.473021
 HEAT               13.595025
 GRADIENT NORM     127.183072
 DIRECTION COSINE    0.999854
 GEO-OK PM7 PRECISE
 Tranzitny stav H2 + Cl2

  H(          1          X    )   0.00000000 +0    0.0000000 +0    0.0000000 +0
  H(          2          X    )   0.79256778 +1    0.0000000 +0    0.0000000 +0     1     0     0
 Cl(          3          X    )   1.87906550 +1  110.7985833 +1    0.0000000 +0     1     2     0
 Cl(          4          X    )   1.87889175 +1  110.8024236 +1   -0.2485365 +1     2     1     3
 
 TIME=     0.06
  REACTANTS AND PRODUCTS SWAPPED AROUND
 *+*+*+*+*+*+*+*+*+*+*+*+*+*+*+*+*+*+*+*+*+*+*+*+*+*+*+*+*+*+*+*+*+*+*+*+*+*+*+*+
            BAR SHORTENED BY       1.000 PERCENT
 GRADIENT CRITERION IN FLEPO =     2.000


          FOR POINT   70 SECOND STRUCTURE
 DISTANCE A - B      0.468291
 HEAT               13.921502
 GRADIENT NORM     149.465719
 DIRECTION COSINE    0.999946
 GEO-OK PM7 PRECISE
 Tranzitny stav H2 + Cl2

  H(          1          X    )   0.00000000 +0    0.0000000 +0    0.0000000 +0
  H(          2          X    )   1.03665086 +1    0.0000000 +0    0.0000000 +0     1     0     0
 Cl(          3          X    )   1.54036975 +1  116.7989350 +1    0.0000000 +0     1     2     0
 Cl(          4          X    )   1.54180796 +1  116.7672596 +1   -0.2589248 +1     2     1     3
 
 TIME=     0.05
  REACTANTS AND PRODUCTS SWAPPED AROUND
 *+*+*+*+*+*+*+*+*+*+*+*+*+*+*+*+*+*+*+*+*+*+*+*+*+*+*+*+*+*+*+*+*+*+*+*+*+*+*+*+
            BAR SHORTENED BY       1.000 PERCENT
 GRADIENT CRITERION IN FLEPO =     2.000


          FOR POINT   71 FIRST  STRUCTURE
 DISTANCE A - B      0.463608
 HEAT               14.191477
 GRADIENT NORM     128.148775
 DIRECTION COSINE    0.999988
 GEO-OK PM7 PRECISE
 Tranzitny stav H2 + Cl2

  H(          1          X    )   0.00000000 +0    0.0000000 +0    0.0000000 +0
  H(          2          X    )   0.79239539 +1    0.0000000 +0    0.0000000 +0     1     0     0
 Cl(          3          X    )   1.87511535 +1  110.8834636 +1    0.0000000 +0     1     2     0
 Cl(          4          X    )   1.87515443 +1  110.9064599 +1   -0.2330618 +1     2     1     3
 
 TIME=     0.05
  REACTANTS AND PRODUCTS SWAPPED AROUND
 *+*+*+*+*+*+*+*+*+*+*+*+*+*+*+*+*+*+*+*+*+*+*+*+*+*+*+*+*+*+*+*+*+*+*+*+*+*+*+*+
            BAR SHORTENED BY       1.000 PERCENT
 GRADIENT CRITERION IN FLEPO =     2.000


          FOR POINT   72 SECOND STRUCTURE
 DISTANCE A - B      0.458972
 HEAT               14.615942
 GRADIENT NORM     150.119405
 DIRECTION COSINE    0.999965
 GEO-OK PM7 PRECISE
 Tranzitny stav H2 + Cl2

  H(          1          X    )   0.00000000 +0    0.0000000 +0    0.0000000 +0
  H(          2          X    )   1.03420830 +1    0.0000000 +0    0.0000000 +0     1     0     0
 Cl(          3          X    )   1.54361973 +1  116.7273606 +1    0.0000000 +0     1     2     0
 Cl(          4          X    )   1.54504343 +1  116.6960981 +1   -0.2585220 +1     2     1     3
 
 TIME=     0.02
  REACTANTS AND PRODUCTS SWAPPED AROUND
 *+*+*+*+*+*+*+*+*+*+*+*+*+*+*+*+*+*+*+*+*+*+*+*+*+*+*+*+*+*+*+*+*+*+*+*+*+*+*+*+
            BAR SHORTENED BY       1.000 PERCENT
 GRADIENT CRITERION IN FLEPO =     2.000


          FOR POINT   73 FIRST  STRUCTURE
 DISTANCE A - B      0.454382
 HEAT               14.782734
 GRADIENT NORM     129.504274
 DIRECTION COSINE    0.999945
 GEO-OK PM7 PRECISE
 Tranzitny stav H2 + Cl2

  H(          1          X    )   0.00000000 +0    0.0000000 +0    0.0000000 +0
  H(          2          X    )   0.79295692 +1    0.0000000 +0    0.0000000 +0     1     0     0
 Cl(          3          X    )   1.87140219 +1  110.9741616 +1    0.0000000 +0     1     2     0
 Cl(          4          X    )   1.87195810 +1  110.9839634 +1   -0.2278465 +1     2     1     3
 
 TIME=     0.05
  REACTANTS AND PRODUCTS SWAPPED AROUND
 *+*+*+*+*+*+*+*+*+*+*+*+*+*+*+*+*+*+*+*+*+*+*+*+*+*+*+*+*+*+*+*+*+*+*+*+*+*+*+*+
            BAR SHORTENED BY       1.000 PERCENT
 GRADIENT CRITERION IN FLEPO =     2.000


          FOR POINT   74 SECOND STRUCTURE
 DISTANCE A - B      0.449838
 HEAT               15.296595
 GRADIENT NORM     150.017902
 DIRECTION COSINE    0.999979
 GEO-OK PM7 PRECISE
 Tranzitny stav H2 + Cl2

  H(          1          X    )   0.00000000 +0    0.0000000 +0    0.0000000 +0
  H(          2          X    )   1.02661793 +1    0.0000000 +0    0.0000000 +0     1     0     0
 Cl(          3          X    )   1.54904552 +1  116.7994113 +1    0.0000000 +0     1     2     0
 Cl(          4          X    )   1.54962539 +1  116.7864197 +1   -0.2462885 +1     2     1     3
 
 TIME=     0.06
  REACTANTS AND PRODUCTS SWAPPED AROUND
 *+*+*+*+*+*+*+*+*+*+*+*+*+*+*+*+*+*+*+*+*+*+*+*+*+*+*+*+*+*+*+*+*+*+*+*+*+*+*+*+
            BAR SHORTENED BY       1.000 PERCENT
 GRADIENT CRITERION IN FLEPO =     2.000


          FOR POINT   75 FIRST  STRUCTURE
 DISTANCE A - B      0.445340
 HEAT               15.365831
 GRADIENT NORM     130.532678
 DIRECTION COSINE    0.999987
 GEO-OK PM7 PRECISE
 Tranzitny stav H2 + Cl2

  H(          1          X    )   0.00000000 +0    0.0000000 +0    0.0000000 +0
  H(          2          X    )   0.79293390 +1    0.0000000 +0    0.0000000 +0     1     0     0
 Cl(          3          X    )   1.86821291 +1  111.0652613 +1    0.0000000 +0     1     2     0
 Cl(          4          X    )   1.86843381 +1  111.0815131 +1   -0.1798971 +1     2     1     3
 
 TIME=     0.05
  REACTANTS AND PRODUCTS SWAPPED AROUND
 *+*+*+*+*+*+*+*+*+*+*+*+*+*+*+*+*+*+*+*+*+*+*+*+*+*+*+*+*+*+*+*+*+*+*+*+*+*+*+*+
            BAR SHORTENED BY       1.000 PERCENT
 GRADIENT CRITERION IN FLEPO =     2.000


          FOR POINT   76 SECOND STRUCTURE
 DISTANCE A - B      0.440887
 HEAT               15.965989
 GRADIENT NORM     150.605522
 DIRECTION COSINE    0.999985
 GEO-OK PM7 PRECISE
 Tranzitny stav H2 + Cl2

  H(          1          X    )   0.00000000 +0    0.0000000 +0    0.0000000 +0
  H(          2          X    )   1.02428109 +1    0.0000000 +0    0.0000000 +0     1     0     0
 Cl(          3          X    )   1.55214519 +1  116.7305555 +1    0.0000000 +0     1     2     0
 Cl(          4          X    )   1.55272168 +1  116.7178373 +1   -0.2454406 +1     2     1     3
 
 TIME=     0.03
  REACTANTS AND PRODUCTS SWAPPED AROUND
 *+*+*+*+*+*+*+*+*+*+*+*+*+*+*+*+*+*+*+*+*+*+*+*+*+*+*+*+*+*+*+*+*+*+*+*+*+*+*+*+
            BAR SHORTENED BY       1.000 PERCENT
 GRADIENT CRITERION IN FLEPO =     2.000


          FOR POINT   77 FIRST  STRUCTURE
 DISTANCE A - B      0.436478
 HEAT               15.944134
 GRADIENT NORM     131.801162
 DIRECTION COSINE    0.999965
 GEO-OK PM7 PRECISE
 Tranzitny stav H2 + Cl2

  H(          1          X    )   0.00000000 +0    0.0000000 +0    0.0000000 +0
  H(          2          X    )   0.79351459 +1    0.0000000 +0    0.0000000 +0     1     0     0
 Cl(          3          X    )   1.86476356 +1  111.1286232 +1    0.0000000 +0     1     2     0
 Cl(          4          X    )   1.86472442 +1  111.1694136 +1   -0.2129675 +1     2     1     3
 
 *+*+*+*+*+*+*+*+*+*+*+*+*+*+*+*+*+*+*+*+*+*+*+*+*+*+*+*+*+*+*+*+*+*+*+*+*+*+*+*+
            BAR SHORTENED BY       1.000 PERCENT
 GRADIENT CRITERION IN FLEPO =     2.000


          FOR POINT   78 FIRST  STRUCTURE
 DISTANCE A - B      0.432113
 HEAT               16.522214
 GRADIENT NORM     133.075975
 DIRECTION COSINE    0.999995
 GEO-OK PM7 PRECISE
 Tranzitny stav H2 + Cl2

  H(          1          X    )   0.00000000 +0    0.0000000 +0    0.0000000 +0
  H(          2          X    )   0.79411968 +1    0.0000000 +0    0.0000000 +0     1     0     0
 Cl(          3          X    )   1.86128895 +1  111.2060257 +1    0.0000000 +0     1     2     0
 Cl(          4          X    )   1.86125289 +1  111.2439080 +1   -0.2169062 +1     2     1     3
 
 TIME=     0.11
  REACTANTS AND PRODUCTS SWAPPED AROUND
 *+*+*+*+*+*+*+*+*+*+*+*+*+*+*+*+*+*+*+*+*+*+*+*+*+*+*+*+*+*+*+*+*+*+*+*+*+*+*+*+
            BAR SHORTENED BY       1.000 PERCENT
 GRADIENT CRITERION IN FLEPO =     2.000


          FOR POINT   79 SECOND STRUCTURE
 DISTANCE A - B      0.427792
 HEAT               16.615364
 GRADIENT NORM     150.542058
 DIRECTION COSINE    0.999963
 GEO-OK PM7 PRECISE
 Tranzitny stav H2 + Cl2

  H(          1          X    )   0.00000000 +0    0.0000000 +0    0.0000000 +0
  H(          2          X    )   1.01793815 +1    0.0000000 +0    0.0000000 +0     1     0     0
 Cl(          3          X    )   1.55697845 +1  116.7660416 +1    0.0000000 +0     1     2     0
 Cl(          4          X    )   1.55716852 +1  116.7916549 +1   -0.2228661 +1     2     1     3
 
 TIME=     0.05
  REACTANTS AND PRODUCTS SWAPPED AROUND
 *+*+*+*+*+*+*+*+*+*+*+*+*+*+*+*+*+*+*+*+*+*+*+*+*+*+*+*+*+*+*+*+*+*+*+*+*+*+*+*+
            BAR SHORTENED BY       1.000 PERCENT
 GRADIENT CRITERION IN FLEPO =     2.000


          FOR POINT   80 FIRST  STRUCTURE
 DISTANCE A - B      0.423514
 HEAT               17.092652
 GRADIENT NORM     134.105493
 DIRECTION COSINE    0.999962
 GEO-OK PM7 PRECISE
 Tranzitny stav H2 + Cl2

  H(          1          X    )   0.00000000 +0    0.0000000 +0    0.0000000 +0
  H(          2          X    )   0.79416599 +1    0.0000000 +0    0.0000000 +0     1     0     0
 Cl(          3          X    )   1.85837609 +1  111.3180194 +1    0.0000000 +0     1     2     0
 Cl(          4          X    )   1.85851190 +1  111.3234853 +1   -0.1932914 +1     2     1     3
 
 TIME=     0.06
  REACTANTS AND PRODUCTS SWAPPED AROUND
 *+*+*+*+*+*+*+*+*+*+*+*+*+*+*+*+*+*+*+*+*+*+*+*+*+*+*+*+*+*+*+*+*+*+*+*+*+*+*+*+
            BAR SHORTENED BY       1.000 PERCENT
 GRADIENT CRITERION IN FLEPO =     2.000


          FOR POINT   81 SECOND STRUCTURE
 DISTANCE A - B      0.419279
 HEAT               17.254028
 GRADIENT NORM     151.067917
 DIRECTION COSINE    0.999961
 GEO-OK PM7 PRECISE
 Tranzitny stav H2 + Cl2

  H(          1          X    )   0.00000000 +0    0.0000000 +0    0.0000000 +0
  H(          2          X    )   1.01570042 +1    0.0000000 +0    0.0000000 +0     1     0     0
 Cl(          3          X    )   1.55990932 +1  116.7012152 +1    0.0000000 +0     1     2     0
 Cl(          4          X    )   1.56009853 +1  116.7266326 +1   -0.2224650 +1     2     1     3
 
 TIME=     0.05
  REACTANTS AND PRODUCTS SWAPPED AROUND
 *+*+*+*+*+*+*+*+*+*+*+*+*+*+*+*+*+*+*+*+*+*+*+*+*+*+*+*+*+*+*+*+*+*+*+*+*+*+*+*+
            BAR SHORTENED BY       1.000 PERCENT
 GRADIENT CRITERION IN FLEPO =     2.000


          FOR POINT   82 FIRST  STRUCTURE
 DISTANCE A - B      0.415086
 HEAT               17.657354
 GRADIENT NORM     135.283716
 DIRECTION COSINE    0.999937
 GEO-OK PM7 PRECISE
 Tranzitny stav H2 + Cl2

  H(          1          X    )   0.00000000 +0    0.0000000 +0    0.0000000 +0
  H(          2          X    )   0.79469990 +1    0.0000000 +0    0.0000000 +0     1     0     0
 Cl(          3          X    )   1.85519458 +1  111.3651287 +1    0.0000000 +0     1     2     0
 Cl(          4          X    )   1.85492360 +1  111.4233982 +1   -0.2103225 +1     2     1     3
 
 TIME=     0.05
  REACTANTS AND PRODUCTS SWAPPED AROUND
 *+*+*+*+*+*+*+*+*+*+*+*+*+*+*+*+*+*+*+*+*+*+*+*+*+*+*+*+*+*+*+*+*+*+*+*+*+*+*+*+
            BAR SHORTENED BY       1.000 PERCENT
 GRADIENT CRITERION IN FLEPO =     2.000


          FOR POINT   83 SECOND STRUCTURE
 DISTANCE A - B      0.410935
 HEAT               17.879540
 GRADIENT NORM     151.056482
 DIRECTION COSINE    0.999972
 GEO-OK PM7 PRECISE
 Tranzitny stav H2 + Cl2

  H(          1          X    )   0.00000000 +0    0.0000000 +0    0.0000000 +0
  H(          2          X    )   1.00977316 +1    0.0000000 +0    0.0000000 +0     1     0     0
 Cl(          3          X    )   1.56398069 +1  116.7497438 +1    0.0000000 +0     1     2     0
 Cl(          4          X    )   1.56416411 +1  116.7616701 +1   -0.2147307 +1     2     1     3
 
 TIME=     0.07
  REACTANTS AND PRODUCTS SWAPPED AROUND
 *+*+*+*+*+*+*+*+*+*+*+*+*+*+*+*+*+*+*+*+*+*+*+*+*+*+*+*+*+*+*+*+*+*+*+*+*+*+*+*+
            BAR SHORTENED BY       1.000 PERCENT
 GRADIENT CRITERION IN FLEPO =     2.000


          FOR POINT   84 FIRST  STRUCTURE
 DISTANCE A - B      0.406826
 HEAT               18.214368
 GRADIENT NORM     136.258052
 DIRECTION COSINE    0.999977
 GEO-OK PM7 PRECISE
 Tranzitny stav H2 + Cl2

  H(          1          X    )   0.00000000 +0    0.0000000 +0    0.0000000 +0
  H(          2          X    )   0.79476836 +1    0.0000000 +0    0.0000000 +0     1     0     0
 Cl(          3          X    )   1.85226022 +1  111.4814508 +1    0.0000000 +0     1     2     0
 Cl(          4          X    )   1.85234827 +1  111.4894667 +1   -0.1857688 +1     2     1     3
 
 TIME=     0.07
  REACTANTS AND PRODUCTS SWAPPED AROUND
 *+*+*+*+*+*+*+*+*+*+*+*+*+*+*+*+*+*+*+*+*+*+*+*+*+*+*+*+*+*+*+*+*+*+*+*+*+*+*+*+
            BAR SHORTENED BY       1.000 PERCENT
 GRADIENT CRITERION IN FLEPO =     2.000


          FOR POINT   85 SECOND STRUCTURE
 DISTANCE A - B      0.402758
 HEAT               18.495047
 GRADIENT NORM     151.538615
 DIRECTION COSINE    0.999970
 GEO-OK PM7 PRECISE
 Tranzitny stav H2 + Cl2

  H(          1          X    )   0.00000000 +0    0.0000000 +0    0.0000000 +0
  H(          2          X    )   1.00762312 +1    0.0000000 +0    0.0000000 +0     1     0     0
 Cl(          3          X    )   1.56678614 +1  116.6875458 +1    0.0000000 +0     1     2     0
 Cl(          4          X    )   1.56696854 +1  116.6994380 +1   -0.2143448 +1     2     1     3
 
 TIME=     0.03
  REACTANTS AND PRODUCTS SWAPPED AROUND
 *+*+*+*+*+*+*+*+*+*+*+*+*+*+*+*+*+*+*+*+*+*+*+*+*+*+*+*+*+*+*+*+*+*+*+*+*+*+*+*+
            BAR SHORTENED BY       1.000 PERCENT
 GRADIENT CRITERION IN FLEPO =     2.000


          FOR POINT   86 FIRST  STRUCTURE
 DISTANCE A - B      0.398730
 HEAT               18.765383
 GRADIENT NORM     137.388023
 DIRECTION COSINE    0.999947
 GEO-OK PM7 PRECISE
 Tranzitny stav H2 + Cl2

  H(          1          X    )   0.00000000 +0    0.0000000 +0    0.0000000 +0
  H(          2          X    )   0.79529484 +1    0.0000000 +0    0.0000000 +0     1     0     0
 Cl(          3          X    )   1.84922078 +1  111.5344307 +1    0.0000000 +0     1     2     0
 Cl(          4          X    )   1.84900823 +1  111.5802380 +1   -0.2011220 +1     2     1     3
 
 TIME=     0.05
  REACTANTS AND PRODUCTS SWAPPED AROUND
 *+*+*+*+*+*+*+*+*+*+*+*+*+*+*+*+*+*+*+*+*+*+*+*+*+*+*+*+*+*+*+*+*+*+*+*+*+*+*+*+
            BAR SHORTENED BY       1.000 PERCENT
 GRADIENT CRITERION IN FLEPO =     2.000


          FOR POINT   87 SECOND STRUCTURE
 DISTANCE A - B      0.394743
 HEAT               19.100169
 GRADIENT NORM     152.004875
 DIRECTION COSINE    0.999910
 GEO-OK PM7 PRECISE
 Tranzitny stav H2 + Cl2

  H(          1          X    )   0.00000000 +0    0.0000000 +0    0.0000000 +0
  H(          2          X    )   1.00549983 +1    0.0000000 +0    0.0000000 +0     1     0     0
 Cl(          3          X    )   1.56953709 +1  116.6269759 +1    0.0000000 +0     1     2     0
 Cl(          4          X    )   1.56971559 +1  116.6391562 +1   -0.2141256 +1     2     1     3
 
 TIME=     0.03
  REACTANTS AND PRODUCTS SWAPPED AROUND
 *+*+*+*+*+*+*+*+*+*+*+*+*+*+*+*+*+*+*+*+*+*+*+*+*+*+*+*+*+*+*+*+*+*+*+*+*+*+*+*+
            BAR SHORTENED BY       1.000 PERCENT
 GRADIENT CRITERION IN FLEPO =     2.000


          FOR POINT   88 FIRST  STRUCTURE
 DISTANCE A - B      0.390795
 HEAT               19.309967
 GRADIENT NORM     138.536567
 DIRECTION COSINE    0.999867
 GEO-OK PM7 PRECISE
 Tranzitny stav H2 + Cl2

  H(          1          X    )   0.00000000 +0    0.0000000 +0    0.0000000 +0
  H(          2          X    )   0.79588201 +1    0.0000000 +0    0.0000000 +0     1     0     0
 Cl(          3          X    )   1.84616679 +1  111.6093682 +1    0.0000000 +0     1     2     0
 Cl(          4          X    )   1.84602343 +1  111.6477081 +1   -0.1911585 +1     2     1     3
 
 TIME=     0.06
  REACTANTS AND PRODUCTS SWAPPED AROUND
 *+*+*+*+*+*+*+*+*+*+*+*+*+*+*+*+*+*+*+*+*+*+*+*+*+*+*+*+*+*+*+*+*+*+*+*+*+*+*+*+
            BAR SHORTENED BY       1.000 PERCENT
 GRADIENT CRITERION IN FLEPO =     2.000


          FOR POINT   89 SECOND STRUCTURE
 DISTANCE A - B      0.386887
 HEAT               19.690837
 GRADIENT NORM     151.485999
 DIRECTION COSINE    0.999940
 GEO-OK PM7 PRECISE
 Tranzitny stav H2 + Cl2

  H(          1          X    )   0.00000000 +0    0.0000000 +0    0.0000000 +0
  H(          2          X    )   0.99846545 +1    0.0000000 +0    0.0000000 +0     1     0     0
 Cl(          3          X    )   1.57542101 +1  116.7900432 +1    0.0000000 +0     1     2     0
 Cl(          4          X    )   1.57465215 +1  116.6708620 +1   -0.2128970 +1     2     1     3
 
 TIME=     0.05
  REACTANTS AND PRODUCTS SWAPPED AROUND
 *+*+*+*+*+*+*+*+*+*+*+*+*+*+*+*+*+*+*+*+*+*+*+*+*+*+*+*+*+*+*+*+*+*+*+*+*+*+*+*+
            BAR SHORTENED BY       1.000 PERCENT
 GRADIENT CRITERION IN FLEPO =     2.000


          FOR POINT   90 FIRST  STRUCTURE
 DISTANCE A - B      0.383018
 HEAT               19.845010
 GRADIENT NORM     139.309468
 DIRECTION COSINE    0.999959
 GEO-OK PM7 PRECISE
 Tranzitny stav H2 + Cl2

  H(          1          X    )   0.00000000 +0    0.0000000 +0    0.0000000 +0
  H(          2          X    )   0.79560244 +1    0.0000000 +0    0.0000000 +0     1     0     0
 Cl(          3          X    )   1.84412954 +1  111.8053708 +1    0.0000000 +0     1     2     0
 Cl(          4          X    )   1.84436823 +1  111.6632639 +1   -0.1990420 +1     2     1     3
 
 TIME=     0.05
  REACTANTS AND PRODUCTS SWAPPED AROUND
 *+*+*+*+*+*+*+*+*+*+*+*+*+*+*+*+*+*+*+*+*+*+*+*+*+*+*+*+*+*+*+*+*+*+*+*+*+*+*+*+
            BAR SHORTENED BY       1.000 PERCENT
 GRADIENT CRITERION IN FLEPO =     2.000


          FOR POINT   91 SECOND STRUCTURE
 DISTANCE A - B      0.379188
 HEAT               20.271842
 GRADIENT NORM     151.906145
 DIRECTION COSINE    0.999964
 GEO-OK PM7 PRECISE
 Tranzitny stav H2 + Cl2

  H(          1          X    )   0.00000000 +0    0.0000000 +0    0.0000000 +0
  H(          2          X    )   0.99643682 +1    0.0000000 +0    0.0000000 +0     1     0     0
 Cl(          3          X    )   1.57803836 +1  116.7317598 +1    0.0000000 +0     1     2     0
 Cl(          4          X    )   1.57728053 +1  116.6124863 +1   -0.2126860 +1     2     1     3
 
 TIME=     0.03
  REACTANTS AND PRODUCTS SWAPPED AROUND
 *+*+*+*+*+*+*+*+*+*+*+*+*+*+*+*+*+*+*+*+*+*+*+*+*+*+*+*+*+*+*+*+*+*+*+*+*+*+*+*+
            BAR SHORTENED BY       1.000 PERCENT
 GRADIENT CRITERION IN FLEPO =     2.000


          FOR POINT   92 FIRST  STRUCTURE
 DISTANCE A - B      0.375396
 HEAT               20.375156
 GRADIENT NORM     140.365602
 DIRECTION COSINE    0.999940
 GEO-OK PM7 PRECISE
 Tranzitny stav H2 + Cl2

  H(          1          X    )   0.00000000 +0    0.0000000 +0    0.0000000 +0
  H(          2          X    )   0.79609796 +1    0.0000000 +0    0.0000000 +0     1     0     0
 Cl(          3          X    )   1.84158579 +1  111.8725013 +1    0.0000000 +0     1     2     0
 Cl(          4          X    )   1.84132600 +1  111.7398394 +1   -0.2006820 +1     2     1     3
 
 TIME=     0.05
  REACTANTS AND PRODUCTS SWAPPED AROUND
 *+*+*+*+*+*+*+*+*+*+*+*+*+*+*+*+*+*+*+*+*+*+*+*+*+*+*+*+*+*+*+*+*+*+*+*+*+*+*+*+
            BAR SHORTENED BY       1.000 PERCENT
 GRADIENT CRITERION IN FLEPO =     2.000


          FOR POINT   93 SECOND STRUCTURE
 DISTANCE A - B      0.371642
 HEAT               20.842092
 GRADIENT NORM     151.552458
 DIRECTION COSINE    0.999956
 GEO-OK PM7 PRECISE
 Tranzitny stav H2 + Cl2

  H(          1          X    )   0.00000000 +0    0.0000000 +0    0.0000000 +0
  H(          2          X    )   0.99100725 +1    0.0000000 +0    0.0000000 +0     1     0     0
 Cl(          3          X    )   1.58190042 +1  116.8169371 +1    0.0000000 +0     1     2     0
 Cl(          4          X    )   1.58297963 +1  116.6388611 +1   -0.1926332 +1     2     1     3
 
 TIME=     0.06
  REACTANTS AND PRODUCTS SWAPPED AROUND
 *+*+*+*+*+*+*+*+*+*+*+*+*+*+*+*+*+*+*+*+*+*+*+*+*+*+*+*+*+*+*+*+*+*+*+*+*+*+*+*+
            BAR SHORTENED BY       1.000 PERCENT
 GRADIENT CRITERION IN FLEPO =     2.000


          FOR POINT   94 FIRST  STRUCTURE
 DISTANCE A - B      0.367926
 HEAT               20.897221
 GRADIENT NORM     141.179181
 DIRECTION COSINE    0.999947
 GEO-OK PM7 PRECISE
 Tranzitny stav H2 + Cl2

  H(          1          X    )   0.00000000 +0    0.0000000 +0    0.0000000 +0
  H(          2          X    )   0.79609155 +1    0.0000000 +0    0.0000000 +0     1     0     0
 Cl(          3          X    )   1.83892187 +1  112.0002576 +1    0.0000000 +0     1     2     0
 Cl(          4          X    )   1.83953975 +1  111.7900891 +1   -0.1756250 +1     2     1     3
 
 TIME=     0.05
  REACTANTS AND PRODUCTS SWAPPED AROUND
 *+*+*+*+*+*+*+*+*+*+*+*+*+*+*+*+*+*+*+*+*+*+*+*+*+*+*+*+*+*+*+*+*+*+*+*+*+*+*+*+
            BAR SHORTENED BY       1.000 PERCENT
 GRADIENT CRITERION IN FLEPO =     2.000


          FOR POINT   95 SECOND STRUCTURE
 DISTANCE A - B      0.364247
 HEAT               21.400372
[...]


          FOR POINT  206 FIRST  STRUCTURE
 DISTANCE A - B      0.119372
 HEAT               39.865705
 GRADIENT NORM     165.455197
 DIRECTION COSINE    0.999958
 GEO-OK PM7 PRECISE
 Tranzitny stav H2 + Cl2

  H(          1          X    )   0.00000000 +0    0.0000000 +0    0.0000000 +0
  H(          2          X    )   0.80802716 +1    0.0000000 +0    0.0000000 +0     1     0     0
 Cl(          3          X    )   1.78890221 +1  114.9065819 +1    0.0000000 +0     1     2     0
 Cl(          4          X    )   1.78944789 +1  115.0472845 +1   -0.1289766 +1     2     1     3
 
 TIME=     0.05
  REACTANTS AND PRODUCTS SWAPPED AROUND
 *+*+*+*+*+*+*+*+*+*+*+*+*+*+*+*+*+*+*+*+*+*+*+*+*+*+*+*+*+*+*+*+*+*+*+*+*+*+*+*+
            BAR SHORTENED BY       1.000 PERCENT
 GRADIENT CRITERION IN FLEPO =     2.000


          FOR POINT  207 SECOND STRUCTURE
 DISTANCE A - B      0.118178
 HEAT               39.899487
 GRADIENT NORM     146.150677
 DIRECTION COSINE    0.999940
 GEO-OK PM7 PRECISE
 Tranzitny stav H2 + Cl2

  H(          1          X    )   0.00000000 +0    0.0000000 +0    0.0000000 +0
  H(          2          X    )   0.88074805 +1    0.0000000 +0    0.0000000 +0     1     0     0
 Cl(          3          X    )   1.71403667 +1  116.3230266 +1    0.0000000 +0     1     2     0
 Cl(          4          X    )   1.71427397 +1  116.5173687 +1   -0.1363229 +1     2     1     3
 
 TIME=     0.03
  REACTANTS AND PRODUCTS SWAPPED AROUND
 *+*+*+*+*+*+*+*+*+*+*+*+*+*+*+*+*+*+*+*+*+*+*+*+*+*+*+*+*+*+*+*+*+*+*+*+*+*+*+*+
            BAR SHORTENED BY       1.000 PERCENT
 GRADIENT CRITERION IN FLEPO =     2.000


          FOR POINT  208 FIRST  STRUCTURE
 DISTANCE A - B      0.116996
 HEAT               40.061553
 GRADIENT NORM     165.995507
 DIRECTION COSINE    0.999897
 GEO-OK PM7 PRECISE
 Tranzitny stav H2 + Cl2

  H(          1          X    )   0.00000000 +0    0.0000000 +0    0.0000000 +0
  H(          2          X    )   0.80875437 +1    0.0000000 +0    0.0000000 +0     1     0     0
 Cl(          3          X    )   1.78814824 +1  114.9201348 +1    0.0000000 +0     1     2     0
 Cl(          4          X    )   1.78869070 +1  115.0613953 +1   -0.1290456 +1     2     1     3
 
 TIME=     0.03
  REACTANTS AND PRODUCTS SWAPPED AROUND
 *+*+*+*+*+*+*+*+*+*+*+*+*+*+*+*+*+*+*+*+*+*+*+*+*+*+*+*+*+*+*+*+*+*+*+*+*+*+*+*+
            BAR SHORTENED BY       1.000 PERCENT
 GRADIENT CRITERION IN FLEPO =     2.000


          FOR POINT  209 SECOND STRUCTURE
 DISTANCE A - B      0.115826
 HEAT               40.069617
 GRADIENT NORM     145.798568
 DIRECTION COSINE    0.999916
 GEO-OK PM7 PRECISE
 Tranzitny stav H2 + Cl2

  H(          1          X    )   0.00000000 +0    0.0000000 +0    0.0000000 +0
  H(          2          X    )   0.87965989 +1    0.0000000 +0    0.0000000 +0     1     0     0
 Cl(          3          X    )   1.71593803 +1  116.3720534 +1    0.0000000 +0     1     2     0
 Cl(          4          X    )   1.71635199 +1  116.4824449 +1   -0.1271706 +1     2     1     3
 
 TIME=     0.06
  REACTANTS AND PRODUCTS SWAPPED AROUND
 *+*+*+*+*+*+*+*+*+*+*+*+*+*+*+*+*+*+*+*+*+*+*+*+*+*+*+*+*+*+*+*+*+*+*+*+*+*+*+*+
            BAR SHORTENED BY       1.000 PERCENT
 GRADIENT CRITERION IN FLEPO =     2.000


          FOR POINT  210 FIRST  STRUCTURE
 DISTANCE A - B      0.114668
 HEAT               40.251463
 GRADIENT NORM     165.806292
 DIRECTION COSINE    0.999944
 GEO-OK PM7 PRECISE
 Tranzitny stav H2 + Cl2

  H(          1          X    )   0.00000000 +0    0.0000000 +0    0.0000000 +0
  H(          2          X    )   0.80846182 +1    0.0000000 +0    0.0000000 +0     1     0     0
 Cl(          3          X    )   1.78839267 +1  115.0032685 +1    0.0000000 +0     1     2     0
 Cl(          4          X    )   1.78935147 +1  115.0767952 +1   -0.1258240 +1     2     1     3
 
 TIME=     0.05
  REACTANTS AND PRODUCTS SWAPPED AROUND
 *+*+*+*+*+*+*+*+*+*+*+*+*+*+*+*+*+*+*+*+*+*+*+*+*+*+*+*+*+*+*+*+*+*+*+*+*+*+*+*+
            BAR SHORTENED BY       1.000 PERCENT
 GRADIENT CRITERION IN FLEPO =     2.000


          FOR POINT  211 SECOND STRUCTURE
 DISTANCE A - B      0.113522
 HEAT               40.235722
 GRADIENT NORM     145.572880
 DIRECTION COSINE    0.999953
 GEO-OK PM7 PRECISE
 Tranzitny stav H2 + Cl2

  H(          1          X    )   0.00000000 +0    0.0000000 +0    0.0000000 +0
  H(          2          X    )   0.87858094 +1    0.0000000 +0    0.0000000 +0     1     0     0
 Cl(          3          X    )   1.71719701 +1  116.4047372 +1    0.0000000 +0     1     2     0
 Cl(          4          X    )   1.71846520 +1  116.4586696 +1   -0.1235230 +1     2     1     3
 
 *+*+*+*+*+*+*+*+*+*+*+*+*+*+*+*+*+*+*+*+*+*+*+*+*+*+*+*+*+*+*+*+*+*+*+*+*+*+*+*+
            BAR SHORTENED BY       1.000 PERCENT
 GRADIENT CRITERION IN FLEPO =     2.000


          FOR POINT  212 SECOND STRUCTURE
 DISTANCE A - B      0.112386
 HEAT               40.401068
 GRADIENT NORM     145.735180
 DIRECTION COSINE    0.999996
 GEO-OK PM7 PRECISE
 Tranzitny stav H2 + Cl2

  H(          1          X    )   0.00000000 +0    0.0000000 +0    0.0000000 +0
  H(          2          X    )   0.87787975 +1    0.0000000 +0    0.0000000 +0     1     0     0
 Cl(          3          X    )   1.71790369 +1  116.3901507 +1    0.0000000 +0     1     2     0
 Cl(          4          X    )   1.71916890 +1  116.4442864 +1   -0.1235403 +1     2     1     3
 
 TIME=     0.09
  REACTANTS AND PRODUCTS SWAPPED AROUND
 *+*+*+*+*+*+*+*+*+*+*+*+*+*+*+*+*+*+*+*+*+*+*+*+*+*+*+*+*+*+*+*+*+*+*+*+*+*+*+*+
            BAR SHORTENED BY       1.000 PERCENT
 GRADIENT CRITERION IN FLEPO =     2.000


          FOR POINT  213 FIRST  STRUCTURE
 DISTANCE A - B      0.111262
 HEAT               40.437031
 GRADIENT NORM     165.960203
 DIRECTION COSINE    0.999934
 GEO-OK PM7 PRECISE
 Tranzitny stav H2 + Cl2

  H(          1          X    )   0.00000000 +0    0.0000000 +0    0.0000000 +0
  H(          2          X    )   0.80870103 +1    0.0000000 +0    0.0000000 +0     1     0     0
 Cl(          3          X    )   1.78824320 +1  115.0545096 +1    0.0000000 +0     1     2     0
 Cl(          4          X    )   1.78976205 +1  115.0911231 +1   -0.1194198 +1     2     1     3
 
 TIME=     0.06
  REACTANTS AND PRODUCTS SWAPPED AROUND
 *+*+*+*+*+*+*+*+*+*+*+*+*+*+*+*+*+*+*+*+*+*+*+*+*+*+*+*+*+*+*+*+*+*+*+*+*+*+*+*+
            BAR SHORTENED BY       1.000 PERCENT
 GRADIENT CRITERION IN FLEPO =     2.000


          FOR POINT  214 SECOND STRUCTURE
 DISTANCE A - B      0.110150
 HEAT               40.562352
 GRADIENT NORM     145.377671
 DIRECTION COSINE    0.999949
 GEO-OK PM7 PRECISE
 Tranzitny stav H2 + Cl2

  H(          1          X    )   0.00000000 +0    0.0000000 +0    0.0000000 +0
  H(          2          X    )   0.87676804 +1    0.0000000 +0    0.0000000 +0     1     0     0
 Cl(          3          X    )   1.71984627 +1  116.4226269 +1    0.0000000 +0     1     2     0
 Cl(          4          X    )   1.72117815 +1  116.4303765 +1   -0.1210998 +1     2     1     3
 
 TIME=     0.05
  REACTANTS AND PRODUCTS SWAPPED AROUND
 *+*+*+*+*+*+*+*+*+*+*+*+*+*+*+*+*+*+*+*+*+*+*+*+*+*+*+*+*+*+*+*+*+*+*+*+*+*+*+*+
            BAR SHORTENED BY       1.000 PERCENT
 GRADIENT CRITERION IN FLEPO =     2.000


          FOR POINT  215 FIRST  STRUCTURE
 DISTANCE A - B      0.109048
 HEAT               40.618147
 GRADIENT NORM     166.047887
 DIRECTION COSINE    0.999954
 GEO-OK PM7 PRECISE
 Tranzitny stav H2 + Cl2

  H(          1          X    )   0.00000000 +0    0.0000000 +0    0.0000000 +0
  H(          2          X    )   0.80889864 +1    0.0000000 +0    0.0000000 +0     1     0     0
 Cl(          3          X    )   1.78871774 +1  115.1011524 +1    0.0000000 +0     1     2     0
 Cl(          4          X    )   1.79025444 +1  115.1180386 +1   -0.1177902 +1     2     1     3
 
 TIME=     0.05
  REACTANTS AND PRODUCTS SWAPPED AROUND
 *+*+*+*+*+*+*+*+*+*+*+*+*+*+*+*+*+*+*+*+*+*+*+*+*+*+*+*+*+*+*+*+*+*+*+*+*+*+*+*+
            BAR SHORTENED BY       1.000 PERCENT
 GRADIENT CRITERION IN FLEPO =     2.000


          FOR POINT  216 SECOND STRUCTURE
 DISTANCE A - B      0.107958
 HEAT               40.720957
 GRADIENT NORM     145.533918
 DIRECTION COSINE    0.999939
 GEO-OK PM7 PRECISE
 Tranzitny stav H2 + Cl2

  H(          1          X    )   0.00000000 +0    0.0000000 +0    0.0000000 +0
  H(          2          X    )   0.87608935 +1    0.0000000 +0    0.0000000 +0     1     0     0
 Cl(          3          X    )   1.72053035 +1  116.4089017 +1    0.0000000 +0     1     2     0
 Cl(          4          X    )   1.72186419 +1  116.4167211 +1   -0.1210641 +1     2     1     3
 
 TIME=     0.03
  REACTANTS AND PRODUCTS SWAPPED AROUND
 *+*+*+*+*+*+*+*+*+*+*+*+*+*+*+*+*+*+*+*+*+*+*+*+*+*+*+*+*+*+*+*+*+*+*+*+*+*+*+*+
            BAR SHORTENED BY       1.000 PERCENT
 GRADIENT CRITERION IN FLEPO =     2.000


          FOR POINT  217 FIRST  STRUCTURE
 DISTANCE A - B      0.106878
 HEAT               40.797671
 GRADIENT NORM     166.545175
 DIRECTION COSINE    0.999897
 GEO-OK PM7 PRECISE
 Tranzitny stav H2 + Cl2

  H(          1          X    )   0.00000000 +0    0.0000000 +0    0.0000000 +0
  H(          2          X    )   0.80957055 +1    0.0000000 +0    0.0000000 +0     1     0     0
 Cl(          3          X    )   1.78803150 +1  115.1137474 +1    0.0000000 +0     1     2     0
 Cl(          4          X    )   1.78956609 +1  115.1305208 +1   -0.1178205 +1     2     1     3
 
 TIME=     0.03
  REACTANTS AND PRODUCTS SWAPPED AROUND
 *+*+*+*+*+*+*+*+*+*+*+*+*+*+*+*+*+*+*+*+*+*+*+*+*+*+*+*+*+*+*+*+*+*+*+*+*+*+*+*+
            BAR SHORTENED BY       1.000 PERCENT
 GRADIENT CRITERION IN FLEPO =     2.000


          FOR POINT  218 SECOND STRUCTURE
 DISTANCE A - B      0.105809
 HEAT               40.875371
 GRADIENT NORM     145.141414
 DIRECTION COSINE    0.999910
 GEO-OK PM7 PRECISE
 Tranzitny stav H2 + Cl2

  H(          1          X    )   0.00000000 +0    0.0000000 +0    0.0000000 +0
  H(          2          X    )   0.87528973 +1    0.0000000 +0    0.0000000 +0     1     0     0
 Cl(          3          X    )   1.72244305 +1  116.4176206 +1    0.0000000 +0     1     2     0
 Cl(          4          X    )   1.72380005 +1  116.4140671 +1   -0.1203543 +1     2     1     3
 
 TIME=     0.06
  REACTANTS AND PRODUCTS SWAPPED AROUND
 *+*+*+*+*+*+*+*+*+*+*+*+*+*+*+*+*+*+*+*+*+*+*+*+*+*+*+*+*+*+*+*+*+*+*+*+*+*+*+*+
            BAR SHORTENED BY       1.000 PERCENT
 GRADIENT CRITERION IN FLEPO =     2.000


          FOR POINT  219 FIRST  STRUCTURE
 DISTANCE A - B      0.104751
 HEAT               40.971739
 GRADIENT NORM     166.309804
 DIRECTION COSINE    0.999940
 GEO-OK PM7 PRECISE
 Tranzitny stav H2 + Cl2

  H(          1          X    )   0.00000000 +0    0.0000000 +0    0.0000000 +0
  H(          2          X    )   0.80921790 +1    0.0000000 +0    0.0000000 +0     1     0     0
 Cl(          3          X    )   1.78835286 +1  115.1846484 +1    0.0000000 +0     1     2     0
 Cl(          4          X    )   1.79003647 +1  115.1529055 +1   -0.1200972 +1     2     1     3
 
 TIME=     0.05
  REACTANTS AND PRODUCTS SWAPPED AROUND
 *+*+*+*+*+*+*+*+*+*+*+*+*+*+*+*+*+*+*+*+*+*+*+*+*+*+*+*+*+*+*+*+*+*+*+*+*+*+*+*+
            BAR SHORTENED BY       1.000 PERCENT
 GRADIENT CRITERION IN FLEPO =     2.000


          FOR POINT  220 SECOND STRUCTURE
 DISTANCE A - B      0.103704
 HEAT               41.026386
 GRADIENT NORM     144.992137
 DIRECTION COSINE    0.999954
 GEO-OK PM7 PRECISE
 Tranzitny stav H2 + Cl2

  H(          1          X    )   0.00000000 +0    0.0000000 +0    0.0000000 +0
  H(          2          X    )   0.87410316 +1    0.0000000 +0    0.0000000 +0     1     0     0
 Cl(          3          X    )   1.72368506 +1  116.4444635 +1    0.0000000 +0     1     2     0
 Cl(          4          X    )   1.72555393 +1  116.4035487 +1   -0.1203554 +1     2     1     3
 
 TIME=     0.06
  REACTANTS AND PRODUCTS SWAPPED AROUND
 *+*+*+*+*+*+*+*+*+*+*+*+*+*+*+*+*+*+*+*+*+*+*+*+*+*+*+*+*+*+*+*+*+*+*+*+*+*+*+*+
            BAR SHORTENED BY       1.000 PERCENT
 GRADIENT CRITERION IN FLEPO =     2.000


          FOR POINT  221 FIRST  STRUCTURE
 DISTANCE A - B      0.102667
 HEAT               41.143460
 GRADIENT NORM     166.399775
 DIRECTION COSINE    0.999953
 GEO-OK PM7 PRECISE
 Tranzitny stav H2 + Cl2

  H(          1          X    )   0.00000000 +0    0.0000000 +0    0.0000000 +0
  H(          2          X    )   0.80936171 +1    0.0000000 +0    0.0000000 +0     1     0     0
 Cl(          3          X    )   1.78831706 +1  115.2259270 +1    0.0000000 +0     1     2     0
 Cl(          4          X    )   1.79027794 +1  115.1750118 +1   -0.1173808 +1     2     1     3
 
 TIME=     0.05
  REACTANTS AND PRODUCTS SWAPPED AROUND
 *+*+*+*+*+*+*+*+*+*+*+*+*+*+*+*+*+*+*+*+*+*+*+*+*+*+*+*+*+*+*+*+*+*+*+*+*+*+*+*+
            BAR SHORTENED BY       1.000 PERCENT
 GRADIENT CRITERION IN FLEPO =     2.000


          FOR POINT  222 SECOND STRUCTURE
 DISTANCE A - B      0.101640
 HEAT               41.175314
 GRADIENT NORM     145.145657
 DIRECTION COSINE    0.999938
 GEO-OK PM7 PRECISE
 Tranzitny stav H2 + Cl2

  H(          1          X    )   0.00000000 +0    0.0000000 +0    0.0000000 +0
  H(          2          X    )   0.87345574 +1    0.0000000 +0    0.0000000 +0     1     0     0
 Cl(          3          X    )   1.72432737 +1  116.4318270 +1    0.0000000 +0     1     2     0
 Cl(          4          X    )   1.72619710 +1  116.3908081 +1   -0.1203227 +1     2     1     3
 
 TIME=     0.03
  REACTANTS AND PRODUCTS SWAPPED AROUND
 *+*+*+*+*+*+*+*+*+*+*+*+*+*+*+*+*+*+*+*+*+*+*+*+*+*+*+*+*+*+*+*+*+*+*+*+*+*+*+*+
            BAR SHORTENED BY       1.000 PERCENT
 GRADIENT CRITERION IN FLEPO =     2.000


          FOR POINT  223 FIRST  STRUCTURE
 DISTANCE A - B      0.100624
 HEAT               41.312827
 GRADIENT NORM     166.871927
 DIRECTION COSINE    0.999901
 GEO-OK PM7 PRECISE
 Tranzitny stav H2 + Cl2

  H(          1          X    )   0.00000000 +0    0.0000000 +0    0.0000000 +0
  H(          2          X    )   0.81000265 +1    0.0000000 +0    0.0000000 +0     1     0     0
 Cl(          3          X    )   1.78767339 +1  115.2375579 +1    0.0000000 +0     1     2     0
 Cl(          4          X    )   1.78963329 +1  115.1867378 +1   -0.1174074 +1     2     1     3
 
 TIME=     0.03
  REACTANTS AND PRODUCTS SWAPPED AROUND
 *+*+*+*+*+*+*+*+*+*+*+*+*+*+*+*+*+*+*+*+*+*+*+*+*+*+*+*+*+*+*+*+*+*+*+*+*+*+*+*+
            BAR SHORTENED BY       1.000 PERCENT
 AT END OF STEPWISE ASCENT OF REACTION BARRIER

 -------------------------------------------------------------------------------
 GEO-OK PM7 PRECISE
 Tranzitny stav H2 + Cl2



     TRANSITION STATE LOCATED USING THE "SADDLE" TECHNIQUE    
     SCF FIELD WAS ACHIEVED                                   


                              PM7 CALCULATION
                                                       MOPAC v22.1.1 Windows
                                                       Mon Feb 19 20:33:02 2024




          FINAL H.O.F PLUS STRESS =         41.31283 KCAL/MOL =     172.85287 KJ/MOL
          FINAL STRESS            =          0.00000 KCAL/MOL =       0.00000 KJ/MOL
          FINAL HEAT OF FORMATION =         41.31283 KCAL/MOL =     172.85287 KJ/MOL
          TOTAL DISTORTION        =          0.00201 Angstroms
          AVERAGE DISTORTION      =          0.00050 Angstroms per atom (all atoms)
          RMS DISTORTION          =          0.00050 Angstroms per atom (all atoms)


          COSMO AREA              =         86.44 SQUARE ANGSTROMS
          COSMO VOLUME            =         69.11 CUBIC ANGSTROMS

          GRADIENT NORM           =         48.30616          =       24.15308 PER ATOM
          IONIZATION POTENTIAL    =          9.805004 EV
          HOMO LUMO ENERGIES (EV) =         -9.805 -3.950
          NO. OF FILLED LEVELS    =          8
          MOLECULAR WEIGHT        =         72.9218         POINT GROUP:  C2v 

          MOLECULAR DIMENSIONS (Angstroms)

            Atom       Atom       Distance
           Cl     4   Cl     3     2.33458
           Cl     3    H     2     1.61795
            H     1    H     2     0.00115


          SCF CALCULATIONS        =       1036
 
          WALL-CLOCK TIME         =     11.922 SECONDS
          COMPUTATION TIME        =          1 MINUTE AND 1.828 SECONDS



       FINAL  POINT  AND  DERIVATIVES

   PARAMETER     ATOM    TYPE            VALUE        GRADIENT
      1          1  H    CARTESIAN X    -5.097163     19.051525  KCAL/ANGSTROM
      2          1  H    CARTESIAN Y     2.123163    -16.551341  KCAL/ANGSTROM
      3          1  H    CARTESIAN Z    -0.004936     -0.492638  KCAL/ANGSTROM
      4          2  H    CARTESIAN X    -5.035270     16.700555  KCAL/ANGSTROM
      5          2  H    CARTESIAN Y     1.314892     20.730009  KCAL/ANGSTROM
      6          2  H    CARTESIAN Z    -0.005583      4.621724  KCAL/ANGSTROM
      7          3 Cl    CARTESIAN X    -3.543793    -10.098845  KCAL/ANGSTROM
      8          3 Cl    CARTESIAN Y     3.006616    -16.318422  KCAL/ANGSTROM
      9          3 Cl    CARTESIAN Z    -0.012078     -1.741736  KCAL/ANGSTROM
     10          4 Cl    CARTESIAN X    -3.363127    -19.323945  KCAL/ANGSTROM
     11          4 Cl    CARTESIAN Y     0.679044     14.884768  KCAL/ANGSTROM
     12          4 Cl    CARTESIAN Z    -0.017270     -0.223472  KCAL/ANGSTROM




   ATOM                 CHEMICAL                   X               Y               Z
  NUMBER                 SYMBOL               (ANGSTROMS)     (ANGSTROMS)     (ANGSTROMS)
 
     1       H(          1          X    )   -5.09716286  *   2.12316262  *  -0.00493616  *
     2       H(          2          X    )   -5.03527019  *   1.31489193  *  -0.00558273  *
     3      Cl(          3          X    )   -3.54379314  *   3.00661602  *  -0.01207845  *
     4      Cl(          4          X    )   -3.36312664  *   0.67904365  *  -0.01726999  *

                             CARTESIAN COORDINATES

   1    H       -5.097162860     2.123162623    -0.004936162
   2    H       -5.035270195     1.314891930    -0.005582727
   3   Cl       -3.543793139     3.006616020    -0.012078447
   4   Cl       -3.363126642     0.679043655    -0.017269987


           Empirical Formula: H2 Cl2  =     4 atoms



      MOLECULAR POINT GROUP   :   C2v 


                  EIGENVALUES  
 -25.74599 -24.75014 -17.88201 -13.08198 -11.93908 -11.21204 -10.91291  -9.80500
  -3.95045   3.77638  68.96845  69.22567  69.67841  70.19480  70.44609  70.52721
  70.54865  70.99622  71.43886  71.67151


              NET ATOMIC CHARGES AND DIPOLE CONTRIBUTIONS

  ATOM NO.   TYPE          CHARGE      No. of ELECS.   s-Pop       p-Pop       d-Pop       
    1          H           0.197358        0.8026     0.80264
    2          H           0.197556        0.8024     0.80244
    3         Cl          -0.197494        7.1975     1.99779     5.19677     0.00293
    4         Cl          -0.197420        7.1974     1.99779     5.19671     0.00293
 DIPOLE           X         Y         Z       TOTAL
 POINT-CHG.    -3.059    -0.236     0.018     3.068
 HYBRID        -0.075    -0.004     0.000     0.075
 SUM           -3.134    -0.240     0.018     3.144


          ATOMIC ORBITAL ELECTRON POPULATIONS

                  Atom                 s        px        py        pz      x^2-y^2     xz        z^2       yz        xy
   H(          1          X    )   0.80264
   H(          2          X    )   0.80244
  Cl(          3          X    )   1.99779   1.30794   1.88953   1.99931   0.00041   0.00003   0.00042   0.00064   0.00142
  Cl(          4          X    )   1.99779   1.24086   1.95656   1.99929   0.00065   0.00003   0.00042   0.00064   0.00118

 **********************
 *                    *
 * JOB ENDED NORMALLY *
 *                    *
 **********************



 TOTAL JOB TIME:            11.95 SECONDS

 == MOPAC DONE ==
