 *******************************************************************************
 **                                                                           **
 **                              MOPAC v22.1.0                                **
 **                                                                           **
 *******************************************************************************
 **          Digital Object Identifier (DOI): 10.5281/zenodo.6511958          **
 **    Visit the DOI location for information on how to cite this program.    **
 *******************************************************************************

                              PM7 CALCULATION RESULTS

 *******************************************************************************
 *  CALCULATION DONE:                                Sun Jan  7 21:30:03 2024  *
 *  PM7        - The PM7 Hamiltonian to be used
 *  SINGLET    - SPIN STATE DEFINED AS A SINGLET
 *
 *
 *
 *                 CHARGE ON SYSTEM = 0
 *
 *
 *
 *  PRECISE    - TIGHTER CRITERIA TO BE USED
 *  T=         - A TIME OF 172800.0 SECONDS REQUESTED
 *  DUMP=N     - RESTART FILE WRITTEN EVERY 7200.0 SECONDS REQUESTED
 *  LARGE      - EXPANDED OUTPUT TO BE PRINTED
 *******************************************************************************
 LARGE CHARGE=0 SINGLET  PRECISE PM7
 Azulen

   ATOM   CHEMICAL          X               Y               Z
  NUMBER   SYMBOL      (ANGSTROMS)     (ANGSTROMS)     (ANGSTROMS)
 
     1       C         -3.77351000  *   2.64469000  *   0.00000000  *
     2       C         -2.60406000  *   1.88779000  *   0.00000000  *
     3       C         -5.06457000  *   2.12321000  *   0.00000000  *
     4       C         -5.48625000  *   0.79043000  *   0.00000000  *
     5       C         -4.75365000  *  -0.40013000  *   0.00000000  *
     6       C         -3.37462000  *  -0.59262000  *   0.00000000  *
     7       C         -2.42388000  *   0.42554000  *   0.00000000  *
     8       C         -1.32920000  *   2.45283000  *   0.00000000  *
     9       C         -0.40010000  *   1.41713000  *   0.00000000  *
    10       C         -1.04999000  *   0.18687000  *   0.00000000  *
    11       H         -3.68343000  *   3.72856000  *   0.00000000  *
    12       H         -5.86226000  *   2.86233000  *   0.00000000  *
    13       H         -6.56566000  *   0.65742000  *   0.00000000  *
    14       H         -5.34806000  *  -1.31079000  *   0.00000000  *
    15       H         -3.02413000  *  -1.62219000  *   0.00000000  *
    16       H         -0.55896000  *  -0.78327000  *   0.00000000  *
    17       H         -1.08835000  *   3.51315000  *   0.00000000  *
    18       H          0.67886000  *   1.55007000  *   0.00000000  *
 


          CARTESIAN COORDINATES 

    NO.       ATOM           X           Y           Z

     1         C         -3.7735      2.6447      0.0000
     2         C         -2.6041      1.8878      0.0000
     3         C         -5.0646      2.1232      0.0000
     4         C         -5.4863      0.7904      0.0000
     5         C         -4.7537     -0.4001      0.0000
     6         C         -3.3746     -0.5926      0.0000
     7         C         -2.4239      0.4255      0.0000
     8         C         -1.3292      2.4528      0.0000
     9         C         -0.4001      1.4171      0.0000
    10         C         -1.0500      0.1869      0.0000
    11         H         -3.6834      3.7286      0.0000
    12         H         -5.8623      2.8623      0.0000
    13         H         -6.5657      0.6574      0.0000
    14         H         -5.3481     -1.3108      0.0000
    15         H         -3.0241     -1.6222      0.0000
    16         H         -0.5590     -0.7833      0.0000
    17         H         -1.0883      3.5131      0.0000
    18         H          0.6789      1.5501      0.0000

 General Reference for PM7:
 "Optimization of Parameters for Semiempirical Methods VI: More Modifications to the 
 NDDO Approximations and Re-optimization of Parameters", J. J. P. Stewart, J. Mol. Mod., 1:32, 19 (2013)
 https://link.springer.com/article/10.1007/s00894-012-1667-x

           Empirical Formula: C10 H8  =    18 atoms



      MOLECULAR POINT GROUP   :   C2v 


 SINGLET STATE CALCULATION


      RHF CALCULATION, NO. OF DOUBLY OCCUPIED LEVELS = 24


          Geometry optimization using EF

          DIAGONAL MATRIX USED AS START HESSIAN

 CYCLE:     1 TIME:   0.055 TIME LEFT:  2.00D  GRAD.:    91.664 HEAT:  82.68095
 CYCLE:     2 TIME:   0.094 TIME LEFT:  2.00D  GRAD.:   101.365 HEAT:  82.56630
 CYCLE:     3 TIME:   0.055 TIME LEFT:  2.00D  GRAD.:    47.013 HEAT:  81.14569
 CYCLE:     4 TIME:   0.086 TIME LEFT:  2.00D  GRAD.:    20.959 HEAT:  80.68404
 CYCLE:     5 TIME:   0.039 TIME LEFT:  2.00D  GRAD.:    27.219 HEAT:  80.65157
 CYCLE:     6 TIME:   0.055 TIME LEFT:  2.00D  GRAD.:    20.423 HEAT:  80.42595
 CYCLE:     7 TIME:   0.047 TIME LEFT:  2.00D  GRAD.:    32.764 HEAT:  80.27036
 CYCLE:     8 TIME:   0.039 TIME LEFT:  2.00D  GRAD.:    41.701 HEAT:  79.77472
 CYCLE:     9 TIME:   0.055 TIME LEFT:  2.00D  GRAD.:    26.520 HEAT:  79.37666
 CYCLE:    10 TIME:   0.102 TIME LEFT:  2.00D  GRAD.:    25.205 HEAT:  79.32399
 CYCLE:    11 TIME:   0.039 TIME LEFT:  2.00D  GRAD.:    12.324 HEAT:  79.20232
 CYCLE:    12 TIME:   0.047 TIME LEFT:  2.00D  GRAD.:    13.192 HEAT:  79.19183
 CYCLE:    13 TIME:   0.047 TIME LEFT:  2.00D  GRAD.:     7.855 HEAT:  79.15627
 CYCLE:    14 TIME:   0.086 TIME LEFT:  2.00D  GRAD.:     4.059 HEAT:  79.14504
 CYCLE:    15 TIME:   0.039 TIME LEFT:  2.00D  GRAD.:     3.388 HEAT:  79.13965
 CYCLE:    16 TIME:   0.047 TIME LEFT:  2.00D  GRAD.:     2.584 HEAT:  79.13355
 CYCLE:    17 TIME:   0.047 TIME LEFT:  2.00D  GRAD.:     2.968 HEAT:  79.13216
 CYCLE:    18 TIME:   0.039 TIME LEFT:  2.00D  GRAD.:     2.016 HEAT:  79.13036
 CYCLE:    19 TIME:   0.047 TIME LEFT:  2.00D  GRAD.:     1.999 HEAT:  79.13006
 CYCLE:    20 TIME:   0.039 TIME LEFT:  2.00D  GRAD.:     0.537 HEAT:  79.12916
 CYCLE:    21 TIME:   0.047 TIME LEFT:  2.00D  GRAD.:     0.553 HEAT:  79.12897
 CYCLE:    22 TIME:   0.047 TIME LEFT:  2.00D  GRAD.:     0.280 HEAT:  79.12877
 CYCLE:    23 TIME:   0.039 TIME LEFT:  2.00D  GRAD.:     0.186 HEAT:  79.12868
 CYCLE:    24 TIME:   0.039 TIME LEFT:  2.00D  GRAD.:     0.196 HEAT:  79.12864
 CYCLE:    25 TIME:   0.055 TIME LEFT:  2.00D  GRAD.:     0.179 HEAT:  79.12860
 CYCLE:    26 TIME:   0.039 TIME LEFT:  2.00D  GRAD.:     0.134 HEAT:  79.12858
 CYCLE:    27 TIME:   0.039 TIME LEFT:  2.00D  GRAD.:     0.080 HEAT:  79.12856
 CYCLE:    28 TIME:   0.039 TIME LEFT:  2.00D  GRAD.:     0.069 HEAT:  79.12855
 CYCLE:    29 TIME:   0.047 TIME LEFT:  2.00D  GRAD.:     0.055 HEAT:  79.12854
 CYCLE:    30 TIME:   0.047 TIME LEFT:  2.00D  GRAD.:     0.041 HEAT:  79.12854

     GRADIENT =  0.04069 IS LESS THAN CUTOFF =  0.05000



 -------------------------------------------------------------------------------
 LARGE CHARGE=0 SINGLET  PRECISE PM7
 Azulen



     GEOMETRY OPTIMISED USING EIGENVECTOR FOLLOWING (EF).     
     SCF FIELD WAS ACHIEVED                                   


                              PM7 CALCULATION
                                                       MOPAC v22.1.0 Windows
                                                       Sun Jan  7 21:30:05 2024




          FINAL HEAT OF FORMATION =         79.12854 KCAL/MOL =     331.07381 KJ/MOL


          COSMO AREA              =        166.86 SQUARE ANGSTROMS
          COSMO VOLUME            =        167.76 CUBIC ANGSTROMS

          GRADIENT NORM           =          0.04069          =       0.00959 PER ATOM
          IONIZATION POTENTIAL    =          8.333317 EV
          HOMO LUMO ENERGIES (EV) =         -8.333 -1.061
          NO. OF FILLED LEVELS    =         24
          MOLECULAR WEIGHT        =        128.1732         POINT GROUP:  C2v 

          MOLECULAR DIMENSIONS (Angstroms)

            Atom       Atom       Distance
            H    18    H    13     7.38047
            H    15    H    11     5.34506
            C     2    C     7     0.00001


          SCF CALCULATIONS        =         35
 
          WALL-CLOCK TIME         =      1.602 SECONDS
          COMPUTATION TIME        =      9.047 SECONDS




   ATOM   CHEMICAL          X               Y               Z
  NUMBER   SYMBOL      (ANGSTROMS)     (ANGSTROMS)     (ANGSTROMS)
 
     1       C         -3.76187540  *   2.59830638  *  -0.00000483  *
     2       C         -2.61004734  *   1.88719180  *   0.00000734  *
     3       C         -5.09390245  *   2.09604786  *   0.00000397  *
     4       C         -5.51824608  *   0.80494618  *  -0.00000144  *
     5       C         -4.76422388  *  -0.40426620  *  -0.00000134  *
     6       C         -3.41756762  *  -0.57505184  *   0.00000293  *
     7       C         -2.40664893  *   0.42011098  *  -0.00000645  *
     8       C         -1.27302248  *   2.46903183  *  -0.00000333  *
     9       C         -0.35377923  *   1.45330474  *   0.00000069  *
    10       C         -1.04671463  *   0.18535139  *   0.00000241  *
    11       H         -3.67982130  *   3.69718895  *   0.00000118  *
    12       H         -5.86947474  *   2.87683519  *  -0.00000056  *
    13       H         -6.60983554  *   0.64538186  *   0.00000021  *
    14       H         -5.38138062  *  -1.31584237  *  -0.00000004  *
    15       H         -3.03430843  *  -1.60875442  *  -0.00000083  *
    16       H         -0.55532701  *  -0.76496825  *  -0.00000054  *
    17       H         -1.08494793  *   3.52194190  *   0.00000080  *
    18       H          0.71546012  *   1.54614444  *  -0.00000006  *

                             CARTESIAN COORDINATES

   1    C       -3.761875402     2.598306376    -0.000004831
   2    C       -2.610047342     1.887191801     0.000007339
   3    C       -5.093902455     2.096047860     0.000003974
   4    C       -5.518246085     0.804946185    -0.000001438
   5    C       -4.764223882    -0.404266200    -0.000001344
   6    C       -3.417567619    -0.575051841     0.000002927
   7    C       -2.406648929     0.420110981    -0.000006445
   8    C       -1.273022481     2.469031833    -0.000003330
   9    C       -0.353779227     1.453304741     0.000000689
  10    C       -1.046714626     0.185351388     0.000002415
  11    H       -3.679821297     3.697188945     0.000001183
  12    H       -5.869474742     2.876835192    -0.000000556
  13    H       -6.609835537     0.645381864     0.000000206
  14    H       -5.381380625    -1.315842368    -0.000000040
  15    H       -3.034308426    -1.608754416    -0.000000832
  16    H       -0.555327012    -0.764968246    -0.000000538
  17    H       -1.084947928     3.521941904     0.000000800
  18    H        0.715460121     1.546144444    -0.000000063


           Empirical Formula: C10 H8  =    18 atoms



      MOLECULAR POINT GROUP   :   C2v 


                  EIGENVALUES  
 -30.90186 -29.08578 -27.39060 -25.56274 -24.36662 -22.26695 -21.02604 -19.23888
 -18.38139 -17.44002 -16.80463 -15.32278 -15.18811 -13.99846 -13.66699 -13.32165
 -12.96850 -12.55706 -12.28711 -12.11043 -11.65325 -11.23910  -9.18349  -8.33332
  -1.06108  -0.66149   1.64478   2.19834   2.35568   3.73073   4.07476   4.28025
   4.61159   4.70945   4.83910   5.07270   5.27904   5.45438   5.56697   5.77398
   5.80521   5.88366   5.95804   5.99997   6.15586   6.31767   6.49973   6.55770


              NET ATOMIC CHARGES AND DIPOLE CONTRIBUTIONS

  ATOM NO.   TYPE          CHARGE      No. of ELECS.   s-Pop       p-Pop       
    1          C          -0.077827        4.0778     1.09010     2.98772
    2          C          -0.012540        4.0125     1.07502     2.93752
    3          C          -0.184303        4.1843     1.07941     3.10489
    4          C          -0.086971        4.0870     1.08678     3.00019
    5          C          -0.182495        4.1825     1.07893     3.10356
    6          C          -0.089166        4.0892     1.08671     3.00245
    7          C          -0.020406        4.0204     1.06767     2.95274
    8          C          -0.228444        4.2284     1.08668     3.14176
    9          C          -0.106348        4.1063     1.09236     3.01399
   10          C          -0.230244        4.2302     1.08620     3.14404
   11          H           0.154677        0.8453     0.84532
   12          H           0.153017        0.8470     0.84698
   13          H           0.146783        0.8532     0.85322
   14          H           0.152100        0.8479     0.84790
   15          H           0.154005        0.8460     0.84600
   16          H           0.154168        0.8458     0.84583
   17          H           0.154017        0.8460     0.84598
   18          H           0.149978        0.8500     0.85002
 DIPOLE           X         Y         Z       TOTAL
 POINT-CHG.    -1.594    -0.056    -0.000     1.594
 HYBRID        -0.101     0.015     0.000     0.102
 SUM           -1.694    -0.041    -0.000     1.695


          ATOMIC ORBITAL ELECTRON POPULATIONS

     Atom    s        px        py        pz   
    1  C   1.09010   0.98102   1.08705   0.91965
    2  C   1.07502   0.97524   0.97738   0.98489
    3  C   1.07941   1.03294   1.03809   1.03386
    4  C   1.08678   1.08103   0.97906   0.94010
    5  C   1.07893   1.01671   1.05354   1.03330
    6  C   1.08671   0.99103   1.07634   0.93508
    7  C   1.06767   0.98142   0.96315   1.00817
    8  C   1.08668   0.98525   1.06790   1.08861
    9  C   1.09236   1.06085   0.98452   0.96862
   10  C   1.08620   1.00055   1.05578   1.08771
   11  H   0.84532
   12  H   0.84698
   13  H   0.85322
   14  H   0.84790
   15  H   0.84600
   16  H   0.84583
   17  H   0.84598
   18  H   0.85002

 **********************
 *                    *
 * JOB ENDED NORMALLY *
 *                    *
 **********************



 TOTAL JOB TIME:             1.61 SECONDS

 == MOPAC DONE ==
