 *******************************************************************************
 **                                                                           **
 **                              MOPAC v22.1.0                                **
 **                                                                           **
 *******************************************************************************
 **          Digital Object Identifier (DOI): 10.5281/zenodo.6511958          **
 **    Visit the DOI location for information on how to cite this program.    **
 *******************************************************************************

                              PM7 CALCULATION RESULTS

 *******************************************************************************
 *  CALCULATION DONE:                                Wed Jan 24 13:54:38 2024  *
 *  PM7        - The PM7 Hamiltonian to be used
 *  SINGLET    - SPIN STATE DEFINED AS A SINGLET
 *
 *
 *
 *                 CHARGE ON SYSTEM = 0
 *
 *
 *
 *  PRECISE    - TIGHTER CRITERIA TO BE USED
 *  T=         - A TIME OF 172800.0 SECONDS REQUESTED
 *  DUMP=N     - RESTART FILE WRITTEN EVERY 7200.0 SECONDS REQUESTED
 *  AUX        - OUTPUT AUXILIARY INFORMATION
 *  LARGE      - EXPANDED OUTPUT TO BE PRINTED
 *  GRAPH      - GENERATE FILE FOR GRAPHICS
 *  ALLVEC     - PRINT ALL EIGENVECTORS
 *******************************************************************************
 AUX LARGE CHARGE=0 SINGLET  PM7 PRECISE ALLVEC GRAPHF
 H2 molecule

   ATOM   CHEMICAL          X               Y               Z
  NUMBER   SYMBOL      (ANGSTROMS)     (ANGSTROMS)     (ANGSTROMS)
 
     1       H          0.00000000  *   0.00000000  *   0.00000000  *
     2       H          0.00000000  *   0.00000000  *   0.80000000  *
 


          CARTESIAN COORDINATES 

    NO.       ATOM           X           Y           Z

     1         H          0.0000      0.0000      0.0000
     2         H          0.0000      0.0000      0.8000

 General Reference for PM7:
 "Optimization of Parameters for Semiempirical Methods VI: More Modifications to the 
 NDDO Approximations and Re-optimization of Parameters", J. J. P. Stewart, J. Mol. Mod., 1:32, 19 (2013)
 https://link.springer.com/article/10.1007/s00894-012-1667-x

           Empirical Formula: H2  =     2 atoms



      MOLECULAR POINT GROUP   :   D*h 


 SINGLET STATE CALCULATION


      RHF CALCULATION, NO. OF DOUBLY OCCUPIED LEVELS = 1


          Geometry optimization using EF

          DIAGONAL MATRIX USED AS START HESSIAN

 CYCLE:     1 TIME:   0.016 TIME LEFT:  2.00D  GRAD.:    68.431 HEAT: -30.99587
 CYCLE:     2 TIME:   0.000 TIME LEFT:  2.00D  GRAD.:    61.599 HEAT: -31.36957
 CYCLE:     3 TIME:   0.000 TIME LEFT:  2.00D  GRAD.:     6.084 HEAT: -32.00366
 CYCLE:     4 TIME:   0.000 TIME LEFT:  2.00D  GRAD.:     0.475 HEAT: -32.01066
 CYCLE:     5 TIME:   0.000 TIME LEFT:  2.00D  GRAD.:     0.004 HEAT: -32.01070

     GRADIENT =  0.00411 IS LESS THAN CUTOFF =  0.05000



 -------------------------------------------------------------------------------
 AUX LARGE CHARGE=0 SINGLET  PM7 PRECISE ALLVEC GRAPHF
 H2 molecule



     GEOMETRY OPTIMISED USING EIGENVECTOR FOLLOWING (EF).     
     SCF FIELD WAS ACHIEVED                                   


                              PM7 CALCULATION
                                                       MOPAC v22.1.0 Windows
                                                       Wed Jan 24 13:54:38 2024




          FINAL HEAT OF FORMATION =        -32.01070 KCAL/MOL =    -133.93276 KJ/MOL


          COSMO AREA              =         27.33 SQUARE ANGSTROMS
          COSMO VOLUME            =         13.10 CUBIC ANGSTROMS

          GRADIENT NORM           =          0.00411          =       0.00291 PER ATOM
          IONIZATION POTENTIAL    =         15.026176 EV
          HOMO LUMO ENERGIES (EV) =        -15.026  7.036
          NO. OF FILLED LEVELS    =          1
          MOLECULAR WEIGHT        =          2.0158         POINT GROUP:  D*h 

          MOLECULAR DIMENSIONS (Angstroms)

            Atom       Atom       Distance
            H     2    H     1     0.75952
            H     2    H     1     0.00000
            H     1    H     2     0.00000


          SCF CALCULATIONS        =          8
 
          WALL-CLOCK TIME         =      0.156 SECONDS
          COMPUTATION TIME        =      0.109 SECONDS




   ATOM   CHEMICAL          X               Y               Z
  NUMBER   SYMBOL      (ANGSTROMS)     (ANGSTROMS)     (ANGSTROMS)
 
     1       H         -0.00000000  *  -0.00000000  *   0.02023950  *
     2       H         -0.00000000  *  -0.00000000  *   0.77976051  *

                             CARTESIAN COORDINATES

   1    H       -0.000000000    -0.000000000     0.020239499
   2    H       -0.000000000    -0.000000000     0.779760509


           Empirical Formula: H2  =     2 atoms



      MOLECULAR POINT GROUP   :   D*h 


                EIGENVECTORS  


   Root No.       1         2

                 1 sig     1 siu 

               -15.026     7.036
  
  S   H    1    0.7071   -0.7071
  S   H    2    0.7071    0.7071


              NET ATOMIC CHARGES AND DIPOLE CONTRIBUTIONS

  ATOM NO.   TYPE          CHARGE      No. of ELECS.   s-Pop       
    1          H          -0.000000        1.0000     1.00000
    2          H           0.000000        1.0000     1.00000
 DIPOLE           X         Y         Z       TOTAL
 POINT-CHG.     0.000     0.000     0.000     0.000
 HYBRID         0.000     0.000     0.000     0.000
 SUM            0.000     0.000     0.000     0.000


          ATOMIC ORBITAL ELECTRON POPULATIONS

     Atom    s   
    1  H   1.00000
    2  H   1.00000

           DATA FOR GRAPH WRITTEN TO DISK

 **********************
 *                    *
 * JOB ENDED NORMALLY *
 *                    *
 **********************



 TOTAL JOB TIME:             0.17 SECONDS

 == MOPAC DONE ==
