 *******************************************************************************
 **                                                                           **
 **                              MOPAC v22.1.0                                **
 **                                                                           **
 *******************************************************************************
 **          Digital Object Identifier (DOI): 10.5281/zenodo.6511958          **
 **    Visit the DOI location for information on how to cite this program.    **
 *******************************************************************************

                              PM6 CALCULATION RESULTS

 *******************************************************************************
 *  CALCULATION DONE:                                Tue Jan 16 12:06:55 2024  *
 *  PM6        - The PM6 Hamiltonian to be used
 *  SINGLET    - SPIN STATE DEFINED AS A SINGLET
 *
 *
 *
 *                 CHARGE ON SYSTEM = 0
 *
 *
 *
 *  T=         - A TIME OF 172800.0 SECONDS REQUESTED
 *  DUMP=N     - RESTART FILE WRITTEN EVERY 7200.0 SECONDS REQUESTED
 *  AUX        - OUTPUT AUXILIARY INFORMATION
 *  LARGE      - EXPANDED OUTPUT TO BE PRINTED
 *******************************************************************************
 AUX LARGE CHARGE=0 SINGLET  PM6
 naftalene

   ATOM   CHEMICAL          X               Y               Z
  NUMBER   SYMBOL      (ANGSTROMS)     (ANGSTROMS)     (ANGSTROMS)
 
     1       C         -3.58530000  *   3.54501000  *   0.00000000  *
     2       C         -4.78204000  *   2.82644000  *   0.00000000  *
     3       C         -4.75796000  *   1.43483000  *   0.00000000  *
     4       C         -3.53708000  *   0.75811000  *   0.00000000  *
     5       C         -2.32401000  *   1.46580000  *   0.00000000  *
     6       C         -2.34844000  *   2.87972000  *   0.00000000  *
     7       C         -1.13531000  *   3.58735000  *   0.00000000  *
     8       C          0.08555000  *   2.91056000  *   0.00000000  *
     9       C          0.10957000  *   1.51895000  *   0.00000000  *
    10       C         -1.08721000  *   0.80045000  *   0.00000000  *
    11       H         -3.62434000  *   4.63187000  *   0.00000000  *
    12       H         -5.73198000  *   3.35439000  *   0.00000000  *
    13       H         -5.68905000  *   0.87430000  *   0.00000000  *
    14       H         -3.53847000  *  -0.32945000  *   0.00000000  *
    15       H         -1.13384000  *   4.67491000  *   0.00000000  *
    16       H          1.01668000  *   3.47102000  *   0.00000000  *
    17       H          1.05946000  *   0.99092000  *   0.00000000  *
    18       H         -1.04823000  *  -0.28641000  *   0.00000000  *
 


          CARTESIAN COORDINATES 

    NO.       ATOM           X           Y           Z

     1         C         -3.5853      3.5450      0.0000
     2         C         -4.7820      2.8264      0.0000
     3         C         -4.7580      1.4348      0.0000
     4         C         -3.5371      0.7581      0.0000
     5         C         -2.3240      1.4658      0.0000
     6         C         -2.3484      2.8797      0.0000
     7         C         -1.1353      3.5873      0.0000
     8         C          0.0856      2.9106      0.0000
     9         C          0.1096      1.5190      0.0000
    10         C         -1.0872      0.8004      0.0000
    11         H         -3.6243      4.6319      0.0000
    12         H         -5.7320      3.3544      0.0000
    13         H         -5.6890      0.8743      0.0000
    14         H         -3.5385     -0.3295      0.0000
    15         H         -1.1338      4.6749      0.0000
    16         H          1.0167      3.4710      0.0000
    17         H          1.0595      0.9909      0.0000
    18         H         -1.0482     -0.2864      0.0000

 General Reference for PM6:
 "Optimization of Parameters for Semiempirical Methods V: Modification of NDDO Approximations
 and Application to 70 Elements", J. J. P. Stewart, J. Mol. Mod., 13, 1173-1213 (2007)
 URL: https://link.springer.com/article/10.1007/s00894-007-0233-4

           Empirical Formula: C10 H8  =    18 atoms



      MOLECULAR POINT GROUP   :   D2h 


 SINGLET STATE CALCULATION


      RHF CALCULATION, NO. OF DOUBLY OCCUPIED LEVELS = 24


          Geometry optimization using EF

          DIAGONAL MATRIX USED AS START HESSIAN

 CYCLE:     1 TIME:   0.035 TIME LEFT:  2.00D  GRAD.:   109.902 HEAT:  43.39255
 CYCLE:     2 TIME:   0.035 TIME LEFT:  2.00D  GRAD.:    83.724 HEAT:  41.74367
 CYCLE:     3 TIME:   0.016 TIME LEFT:  2.00D  GRAD.:    74.364 HEAT:  41.43118
 CYCLE:     4 TIME:   0.016 TIME LEFT:  2.00D  GRAD.:    56.904 HEAT:  40.99588
 CYCLE:     5 TIME:   0.016 TIME LEFT:  2.00D  GRAD.:    39.416 HEAT:  40.53718
 CYCLE:     6 TIME:   0.035 TIME LEFT:  2.00D  GRAD.:    20.507 HEAT:  40.23519
 CYCLE:     7 TIME:   0.016 TIME LEFT:  2.00D  GRAD.:     7.683 HEAT:  40.10973
 CYCLE:     8 TIME:   0.031 TIME LEFT:  2.00D  GRAD.:     3.107 HEAT:  40.09476
 CYCLE:     9 TIME:   0.016 TIME LEFT:  2.00D  GRAD.:     3.059 HEAT:  40.09016
 CYCLE:    10 TIME:   0.016 TIME LEFT:  2.00D  GRAD.:     3.021 HEAT:  40.08609
 CYCLE:    11 TIME:   0.031 TIME LEFT:  2.00D  GRAD.:     2.298 HEAT:  40.08183
 CYCLE:    12 TIME:   0.016 TIME LEFT:  2.00D  GRAD.:     0.338 HEAT:  40.08066

     GRADIENT =  0.33849 IS LESS THAN CUTOFF =  1.00000



 -------------------------------------------------------------------------------
 AUX LARGE CHARGE=0 SINGLET  PM6
 naftalene



     GEOMETRY OPTIMISED USING EIGENVECTOR FOLLOWING (EF).     
     SCF FIELD WAS ACHIEVED                                   


                              PM6 CALCULATION
                                                       MOPAC v22.1.0 Windows
                                                       Tue Jan 16 12:06:55 2024




          FINAL HEAT OF FORMATION =         40.08066 KCAL/MOL =     167.69747 KJ/MOL


          COSMO AREA              =        167.17 SQUARE ANGSTROMS
          COSMO VOLUME            =        167.30 CUBIC ANGSTROMS

          GRADIENT NORM           =          0.33849          =       0.07978 PER ATOM
          IONIZATION POTENTIAL    =          8.881751 EV
          HOMO LUMO ENERGIES (EV) =         -8.882 -0.400
          NO. OF FILLED LEVELS    =         24
          MOLECULAR WEIGHT        =        128.1732         POINT GROUP:  D2h 

          MOLECULAR DIMENSIONS (Angstroms)

            Atom       Atom       Distance
            H    17    H    12     7.21269
            H    15    H    14     5.53980
            C     1    C     8     0.00000


          SCF CALCULATIONS        =         15
 
          WALL-CLOCK TIME         =      0.348 SECONDS
          COMPUTATION TIME        =      0.609 SECONDS




   ATOM   CHEMICAL          X               Y               Z
  NUMBER   SYMBOL      (ANGSTROMS)     (ANGSTROMS)     (ANGSTROMS)
 
     1       C         -3.61014287  *   3.55847836  *  -0.00000000  *
     2       C         -4.78126905  *   2.84353759  *   0.00000000  *
     3       C         -4.75654492  *   1.41784792  *   0.00000000  *
     4       C         -3.56143825  *   0.74380185  *   0.00000000  *
     5       C         -2.32397865  *   1.46326903  *   0.00000000  *
     6       C         -2.34845683  *   2.88221468  *  -0.00000000  *
     7       C         -1.11097216  *   3.60160639  *  -0.00000000  *
     8       C          0.08412868  *   2.92762798  *   0.00000000  *
     9       C          0.10881193  *   1.50180830  *   0.00000000  *
    10       C         -1.06233345  *   0.78702855  *  -0.00000000  *
    11       H         -3.61896550  *   4.64715985  *   0.00000000  *
    12       H         -5.74534067  *   3.34907940  *   0.00000000  *
    13       H         -5.70249419  *   0.87910077  *  -0.00000000  *
    14       H         -3.53266931  *  -0.34457374  *  -0.00000000  *
    15       H         -1.13969992  *   4.69001018  *   0.00000000  *
    16       H          1.03009785  *   3.46637857  *   0.00000000  *
    17       H          1.07274801  *   0.99609869  *  -0.00000000  *
    18       H         -1.05356511  *  -0.30170589  *   0.00000000  *

                             CARTESIAN COORDINATES

   1    C       -3.610142875     3.558478356    -0.000000000
   2    C       -4.781269054     2.843537590     0.000000000
   3    C       -4.756544920     1.417847917     0.000000000
   4    C       -3.561438247     0.743801846     0.000000000
   5    C       -2.323978652     1.463269031     0.000000000
   6    C       -2.348456830     2.882214677    -0.000000000
   7    C       -1.110972161     3.601606390    -0.000000000
   8    C        0.084128679     2.927627977     0.000000000
   9    C        0.108811932     1.501808298     0.000000000
  10    C       -1.062333449     0.787028545    -0.000000000
  11    H       -3.618965505     4.647159854     0.000000000
  12    H       -5.745340669     3.349079403     0.000000000
  13    H       -5.702494187     0.879100768    -0.000000000
  14    H       -3.532669305    -0.344573743    -0.000000000
  15    H       -1.139699915     4.690010184     0.000000000
  16    H        1.030097851     3.466378573     0.000000000
  17    H        1.072748014     0.996098692    -0.000000000
  18    H       -1.053565112    -0.301705895     0.000000000


           Empirical Formula: C10 H8  =    18 atoms



      MOLECULAR POINT GROUP   :   D2h 


                  EIGENVALUES  
 -30.12613 -28.88205 -26.79624 -25.55958 -25.06738 -21.79622 -21.49486 -21.03817
 -17.42953 -17.40239 -16.63532 -15.23514 -14.86903 -14.16599 -14.08267 -13.88145
 -13.62826 -12.62870 -11.93751 -11.84718 -11.60917 -10.59056  -9.26752  -8.88175
  -0.39999   0.06151   0.97436   1.86041   2.99342   3.96193   3.98413   4.59712
   4.82914   4.84669   4.86166   4.91548   5.03125   5.44010   5.51278   5.75233
   5.76910   5.88396   6.11869   6.11954   6.11986   6.16088   6.30868   6.31588


              NET ATOMIC CHARGES AND DIPOLE CONTRIBUTIONS

  ATOM NO.   TYPE          CHARGE      No. of ELECS.   s-Pop       p-Pop       
    1          C          -0.163334        4.1633     1.10876     3.05457
    2          C          -0.140776        4.1408     1.10535     3.03543
    3          C          -0.140786        4.1408     1.10535     3.03544
    4          C          -0.163358        4.1634     1.10875     3.05461
    5          C           0.016957        3.9830     1.08722     2.89582
    6          C           0.016966        3.9830     1.08723     2.89581
    7          C          -0.163387        4.1634     1.10874     3.05465
    8          C          -0.140758        4.1408     1.10537     3.03539
    9          C          -0.140762        4.1408     1.10535     3.03541
   10          C          -0.163370        4.1634     1.10875     3.05462
   11          H           0.149864        0.8501     0.85014
   12          H           0.145782        0.8542     0.85422
   13          H           0.145776        0.8542     0.85422
   14          H           0.149877        0.8501     0.85012
   15          H           0.149881        0.8501     0.85012
   16          H           0.145779        0.8542     0.85422
   17          H           0.145778        0.8542     0.85422
   18          H           0.149870        0.8501     0.85013
 DIPOLE           X         Y         Z       TOTAL
 POINT-CHG.     0.000     0.000     0.000     0.000
 HYBRID        -0.000    -0.000     0.000     0.000
 SUM            0.000    -0.000     0.000     0.000


          ATOMIC ORBITAL ELECTRON POPULATIONS

     Atom    s        px        py        pz   
    1  C   1.10876   0.97730   1.06819   1.00908
    2  C   1.10535   1.04354   0.99257   0.99932
    3  C   1.10535   1.04097   0.99516   0.99932
    4  C   1.10875   0.97751   1.06801   1.00909
    5  C   1.08722   0.94960   0.96303   0.98319
    6  C   1.08723   0.94959   0.96302   0.98319
    7  C   1.10874   0.97752   1.06802   1.00911
    8  C   1.10537   1.04096   0.99513   0.99930
    9  C   1.10535   1.04353   0.99256   0.99932
   10  C   1.10875   0.97732   1.06821   1.00909
   11  H   0.85014
   12  H   0.85422
   13  H   0.85422
   14  H   0.85012
   15  H   0.85012
   16  H   0.85422
   17  H   0.85422
   18  H   0.85013

 **********************
 *                    *
 * JOB ENDED NORMALLY *
 *                    *
 **********************



 TOTAL JOB TIME:             0.36 SECONDS

 == MOPAC DONE ==
