 *******************************************************************************
 **                                                                           **
 **                              MOPAC v22.1.0                                **
 **                                                                           **
 *******************************************************************************
 **          Digital Object Identifier (DOI): 10.5281/zenodo.6511958          **
 **    Visit the DOI location for information on how to cite this program.    **
 *******************************************************************************

                              PM7 CALCULATION RESULTS

 *******************************************************************************
 *  CALCULATION DONE:                                Mon Jan 22 09:10:33 2024  *
 *  PM7        - The PM7 Hamiltonian to be used
 *  DOUBLET    - SPIN STATE DEFINED AS A DOUBLET
 *  RHF        - RESTRICTED HARTREE-FOCK CALCULATION
 *  NOOPT      - DO NOT OPTIMIZE ANY COORDINATES
 *
 *
 *
 *                 CHARGE ON SYSTEM = 0
 *
 *
 *
 *  PRECISE    - TIGHTER CRITERIA TO BE USED
 *  T=         - A TIME OF 172800.0 SECONDS REQUESTED
 *  DUMP=N     - RESTART FILE WRITTEN EVERY 7200.0 SECONDS REQUESTED
 *  LARGE      - EXPANDED OUTPUT TO BE PRINTED
 *******************************************************************************
 PRECISE LARGE CHARGE=0 DOUBLET NOOPT PM7 RHF
 Atom Na

   ATOM   CHEMICAL          X               Y               Z
  NUMBER   SYMBOL      (ANGSTROMS)     (ANGSTROMS)     (ANGSTROMS)
 
     1      Na          0.00000000      0.00000000      0.00000000   
 


          CARTESIAN COORDINATES 

    NO.       ATOM           X           Y           Z

     1        Na          0.0000      0.0000      0.0000

 General Reference for PM7:
 "Optimization of Parameters for Semiempirical Methods VI: More Modifications to the 
 NDDO Approximations and Re-optimization of Parameters", J. J. P. Stewart, J. Mol. Mod., 1:32, 19 (2013)
 https://link.springer.com/article/10.1007/s00894-012-1667-x

           Empirical Formula: Na  =     1 atoms



      MOLECULAR POINT GROUP   :   R3  


 DOUBLET STATE CALCULATION

      THERE ARE    0 DOUBLY FILLED LEVELS


      RHF CALCULATION, NO. OF DOUBLY OCCUPIED LEVELS = 0


                       NO. OF SINGLY OCCUPIED LEVELS =    1

 -------------------------------------------------------------------------------
 PRECISE LARGE CHARGE=0 DOUBLET NOOPT PM7 RHF
 Atom Na



     NO PARAMETERS MARKED FOR OPTIMIZATION, SO 1SCF WAS USED  
     SCF FIELD WAS ACHIEVED                                   


                              PM7 CALCULATION
                                                       MOPAC v22.1.0 Windows
                                                       Mon Jan 22 09:10:33 2024




          FINAL HEAT OF FORMATION =         25.65000 KCAL/MOL =     107.31960 KJ/MOL


          COSMO AREA              =         88.91 SQUARE ANGSTROMS
          COSMO VOLUME            =         78.84 CUBIC ANGSTROMS

          IONIZATION POTENTIAL    =          5.815476 EV          STATE:   1 DOUBLET S(g)
               (SOMO) LUMO (EV)   =      ( 4.190) 13.779
          NO. OF FILLED LEVELS    =          0
          AND NO. OF OPEN LEVELS  =          1
          MOLECULAR WEIGHT        =         22.9898         POINT GROUP:  R3  


          SCF CALCULATIONS        =          1
 
          WALL-CLOCK TIME         =      0.066 SECONDS
          COMPUTATION TIME        =      0.016 SECONDS




   ATOM   CHEMICAL          X               Y               Z
  NUMBER   SYMBOL      (ANGSTROMS)     (ANGSTROMS)     (ANGSTROMS)
 
     1      Na          0.00000000      0.00000000      0.00000000   

                             CARTESIAN COORDINATES

   1   Na        0.000000000     0.000000000     0.000000000


           Empirical Formula: Na  =     1 atoms



      MOLECULAR POINT GROUP   :   R3  


                  EIGENVALUES  
   4.19021  13.77878  13.77878  13.77878


              NET ATOMIC CHARGES AND DIPOLE CONTRIBUTIONS

  ATOM NO.   TYPE          CHARGE      No. of ELECS.   s-Pop       p-Pop       
    1         Na          -0.000000        1.0000     1.00000     0.00000
 DIPOLE           X         Y         Z       TOTAL
 POINT-CHG.     0.000     0.000     0.000     0.000
 HYBRID        -0.000    -0.000     0.000     0.000
 SUM           -0.000    -0.000     0.000     0.000


          ATOMIC ORBITAL ELECTRON POPULATIONS

     Atom    s        px        py        pz   
    1 Na   1.00000   0.00000   0.00000   0.00000

 **********************
 *                    *
 * JOB ENDED NORMALLY *
 *                    *
 **********************



 TOTAL JOB TIME:             0.13 SECONDS

 == MOPAC DONE ==
