 *******************************************************************************
 **                                                                           **
 **                              MOPAC v22.1.0                                **
 **                                                                           **
 *******************************************************************************
 **          Digital Object Identifier (DOI): 10.5281/zenodo.6511958          **
 **    Visit the DOI location for information on how to cite this program.    **
 *******************************************************************************

                              PM7 CALCULATION RESULTS

 *******************************************************************************
 *  CALCULATION DONE:                                Sun Jan 28 15:21:09 2024  *
 *  PM7        - The PM7 Hamiltonian to be used
 *  SINGLET    - SPIN STATE DEFINED AS A SINGLET
 *
 *
 *
 *                 CHARGE ON SYSTEM = 0
 *
 *
 *
 *  PRECISE    - TIGHTER CRITERIA TO BE USED
 *  T=         - A TIME OF 172800.0 SECONDS REQUESTED
 *  DUMP=N     - RESTART FILE WRITTEN EVERY 7200.0 SECONDS REQUESTED
 *  LARGE      - EXPANDED OUTPUT TO BE PRINTED
 *******************************************************************************
 PRECISE  LARGE CHARGE=0 SINGLET  PM7
 BF3 PM7

   ATOM   CHEMICAL          X               Y               Z
  NUMBER   SYMBOL      (ANGSTROMS)     (ANGSTROMS)     (ANGSTROMS)
 
     1       B         -3.59481000  *  -0.14272000  *   0.00000000  *
     2       F         -4.41301000  *   1.04742000  *   0.00000000  *
     3       F         -4.21640000  *  -1.44636000  *   0.00000000  *
     4       F         -2.15503000  *  -0.02920000  *   0.00000000  *
 


          CARTESIAN COORDINATES 

    NO.       ATOM           X           Y           Z

     1         B         -3.5948     -0.1427      0.0000
     2         F         -4.4130      1.0474      0.0000
     3         F         -4.2164     -1.4464      0.0000
     4         F         -2.1550     -0.0292      0.0000

 General Reference for PM7:
 "Optimization of Parameters for Semiempirical Methods VI: More Modifications to the 
 NDDO Approximations and Re-optimization of Parameters", J. J. P. Stewart, J. Mol. Mod., 1:32, 19 (2013)
 https://link.springer.com/article/10.1007/s00894-012-1667-x

           Empirical Formula: B F3  =     4 atoms



      MOLECULAR POINT GROUP   :   D3h 


 SINGLET STATE CALCULATION


      RHF CALCULATION, NO. OF DOUBLY OCCUPIED LEVELS = 12


          Geometry optimization using EF

          DIAGONAL MATRIX USED AS START HESSIAN

 CYCLE:     1 TIME:   0.004 TIME LEFT:  2.00D  GRAD.:   187.956 HEAT: -245.7771
 CYCLE:     2 TIME:   0.016 TIME LEFT:  2.00D  GRAD.:    59.815 HEAT: -269.6128
 CYCLE:     3 TIME:   0.004 TIME LEFT:  2.00D  GRAD.:    62.410 HEAT: -270.1925
 CYCLE:     4 TIME:   0.004 TIME LEFT:  2.00D  GRAD.:    28.264 HEAT: -271.0334
 CYCLE:     5 TIME:   0.008 TIME LEFT:  2.00D  GRAD.:    10.986 HEAT: -271.2136
 CYCLE:     6 TIME:   0.004 TIME LEFT:  2.00D  GRAD.:     7.842 HEAT: -271.2628
 CYCLE:     7 TIME:   0.016 TIME LEFT:  2.00D  GRAD.:     3.990 HEAT: -271.2945
 CYCLE:     8 TIME:   0.004 TIME LEFT:  2.00D  GRAD.:     1.167 HEAT: -271.3156
 CYCLE:     9 TIME:   0.008 TIME LEFT:  2.00D  GRAD.:     0.186 HEAT: -271.3162
 CYCLE:    10 TIME:   0.012 TIME LEFT:  2.00D  GRAD.:     0.081 HEAT: -271.3162
 CYCLE:    11 TIME:   0.004 TIME LEFT:  2.00D  GRAD.:     0.066 HEAT: -271.3162
 CYCLE:    12 TIME:   0.008 TIME LEFT:  2.00D  GRAD.:     0.030 HEAT: -271.3162

     GRADIENT =  0.03038 IS LESS THAN CUTOFF =  0.05000



 -------------------------------------------------------------------------------
 PRECISE  LARGE CHARGE=0 SINGLET  PM7
 BF3 PM7



     GEOMETRY OPTIMISED USING EIGENVECTOR FOLLOWING (EF).     
     SCF FIELD WAS ACHIEVED                                   


                              PM7 CALCULATION
                                                       MOPAC v22.1.0 Windows
                                                       Sun Jan 28 15:21:10 2024




          FINAL HEAT OF FORMATION =       -271.31620 KCAL/MOL =   -1135.18698 KJ/MOL


          COSMO AREA              =         78.01 SQUARE ANGSTROMS
          COSMO VOLUME            =         59.30 CUBIC ANGSTROMS

          GRADIENT NORM           =          0.03038          =       0.01519 PER ATOM
          IONIZATION POTENTIAL    =         14.866190 EV
          HOMO LUMO ENERGIES (EV) =        -14.866 -0.698
          NO. OF FILLED LEVELS    =         12
          MOLECULAR WEIGHT        =         67.8052         POINT GROUP:  D3h 

          MOLECULAR DIMENSIONS (Angstroms)

            Atom       Atom       Distance
            F     4    F     3     2.25996
            F     3    F     2     1.95714
            F     2    B     1     0.00000


          SCF CALCULATIONS        =         14
 
          WALL-CLOCK TIME         =      0.215 SECONDS
          COMPUTATION TIME        =      0.156 SECONDS




   ATOM   CHEMICAL          X               Y               Z
  NUMBER   SYMBOL      (ANGSTROMS)     (ANGSTROMS)     (ANGSTROMS)
 
     1       B         -3.59480413  *  -0.14272402  *  -0.00000000  *
     2       F         -4.33404752  *   0.93243437  *   0.00000000  *
     3       F         -4.15631388  *  -1.32050170  *   0.00000000  *
     4       F         -2.29408303  *  -0.04006964  *   0.00000000  *

                             CARTESIAN COORDINATES

   1    B       -3.594804132    -0.142724019    -0.000000001
   2    F       -4.334047517     0.932434371     0.000000000
   3    F       -4.156313878    -1.320501696     0.000000000
   4    F       -2.294083031    -0.040069643     0.000000000


           Empirical Formula: B F3  =     4 atoms



      MOLECULAR POINT GROUP   :   D3h 


                  EIGENVALUES  
 -40.98733 -40.98716 -40.58583 -18.30644 -17.69470 -17.69465 -17.27456 -15.68807
 -15.42237 -15.42232 -14.86624 -14.86619  -0.69801   2.43451   2.43463   2.79936


              NET ATOMIC CHARGES AND DIPOLE CONTRIBUTIONS

  ATOM NO.   TYPE          CHARGE      No. of ELECS.   s-Pop       p-Pop       
    1          B           0.814026        2.1860     0.67214     1.51383
    2          F          -0.271344        7.2713     1.94224     5.32910
    3          F          -0.271344        7.2713     1.94224     5.32910
    4          F          -0.271337        7.2713     1.94224     5.32910
 DIPOLE           X         Y         Z       TOTAL
 POINT-CHG.     0.000    -0.000    -0.000     0.000
 HYBRID         0.000    -0.000    -0.000     0.000
 SUM            0.000    -0.000    -0.000     0.000


          ATOMIC ORBITAL ELECTRON POPULATIONS

     Atom    s        px        py        pz   
    1  B   0.67214   0.59281   0.59281   0.32821
    2  F   1.94224   1.80424   1.63427   1.89060
    3  F   1.94224   1.86870   1.56980   1.89060
    4  F   1.94224   1.48481   1.95369   1.89059

 **********************
 *                    *
 * JOB ENDED NORMALLY *
 *                    *
 **********************



 TOTAL JOB TIME:             0.23 SECONDS

 == MOPAC DONE ==
