 *******************************************************************************
 **                                                                           **
 **                              MOPAC v22.1.0                                **
 **                                                                           **
 *******************************************************************************
 **          Digital Object Identifier (DOI): 10.5281/zenodo.6511958          **
 **    Visit the DOI location for information on how to cite this program.    **
 *******************************************************************************

                              PM7 CALCULATION RESULTS

 *******************************************************************************
 *  CALCULATION DONE:                                Mon Jan 29 13:37:50 2024  *
 *  PM7        - The PM7 Hamiltonian to be used
 *  SINGLET    - SPIN STATE DEFINED AS A SINGLET
 *
 *
 *
 *                 CHARGE ON SYSTEM = 0
 *
 *
 *
 *  PRECISE    - TIGHTER CRITERIA TO BE USED
 *  T=         - A TIME OF 172800.0 SECONDS REQUESTED
 *  DUMP=N     - RESTART FILE WRITTEN EVERY 7200.0 SECONDS REQUESTED
 *  LARGE      - EXPANDED OUTPUT TO BE PRINTED
 *******************************************************************************
  PRECISE LARGE CHARGE=0 SINGLET  PM7
 3 metanoly

   ATOM   CHEMICAL          X               Y               Z
  NUMBER   SYMBOL      (ANGSTROMS)     (ANGSTROMS)     (ANGSTROMS)
 
     1       C         -2.70319000  *   1.36448000  *   3.52131000  *
     2       O         -2.42873000  *   1.24747000  *   2.13251000  *
     3       H         -2.31741000  *   2.32226000  *   3.87835000  *
     4       H         -2.20968000  *   0.55121000  *   4.05887000  *
     5       H         -3.78290000  *   1.32371000  *   3.68374000  *
     6       H         -2.78791000  *   0.38389000  *   1.85568000  *
     7       C         -1.09024000  *   3.58588000  *   0.04568000  *
     8       H         -1.33777000  *   2.84771000  *  -0.72102000  *
     9       O         -0.53445000  *   2.92876000  *   1.17294000  *
    10       H         -1.98818000  *   4.13039000  *   0.34763000  *
    11       H         -0.35525000  *   4.28966000  *  -0.35178000  *
    12       H         -1.23085000  *   2.30743000  *   1.49012000  *
    13       C          1.61713000  *   3.26789000  *   3.61049000  *
    14       H          2.52409000  *   3.45804000  *   4.18909000  *
    15       H          0.84438000  *   3.98311000  *   3.90313000  *
    16       H          1.27378000  *   2.24785000  *   3.80028000  *
    17       O          1.90773000  *   3.42083000  *   2.23436000  *
    18       H          1.06273000  *   3.24753000  *   1.75906000  *
 


          CARTESIAN COORDINATES 

    NO.       ATOM           X           Y           Z

     1         C         -2.7032      1.3645      3.5213
     2         O         -2.4287      1.2475      2.1325
     3         H         -2.3174      2.3223      3.8784
     4         H         -2.2097      0.5512      4.0589
     5         H         -3.7829      1.3237      3.6837
     6         H         -2.7879      0.3839      1.8557
     7         C         -1.0902      3.5859      0.0457
     8         H         -1.3378      2.8477     -0.7210
     9         O         -0.5344      2.9288      1.1729
    10         H         -1.9882      4.1304      0.3476
    11         H         -0.3553      4.2897     -0.3518
    12         H         -1.2308      2.3074      1.4901
    13         C          1.6171      3.2679      3.6105
    14         H          2.5241      3.4580      4.1891
    15         H          0.8444      3.9831      3.9031
    16         H          1.2738      2.2479      3.8003
    17         O          1.9077      3.4208      2.2344
    18         H          1.0627      3.2475      1.7591

 General Reference for PM7:
 "Optimization of Parameters for Semiempirical Methods VI: More Modifications to the 
 NDDO Approximations and Re-optimization of Parameters", J. J. P. Stewart, J. Mol. Mod., 1:32, 19 (2013)
 https://link.springer.com/article/10.1007/s00894-012-1667-x

           Empirical Formula: C3 H12 O3  =    18 atoms



      MOLECULAR POINT GROUP   :   C1  


 SINGLET STATE CALCULATION


      RHF CALCULATION, NO. OF DOUBLY OCCUPIED LEVELS = 21


          Geometry optimization using EF

          DIAGONAL MATRIX USED AS START HESSIAN

 CYCLE:     1 TIME:   0.102 TIME LEFT:  2.00D  GRAD.:    32.264 HEAT: -156.0318
 CYCLE:     2 TIME:   0.039 TIME LEFT:  2.00D  GRAD.:    58.888 HEAT: -156.3529
 CYCLE:     3 TIME:   0.023 TIME LEFT:  2.00D  GRAD.:    32.164 HEAT: -157.7311
 CYCLE:     4 TIME:   0.059 TIME LEFT:  2.00D  GRAD.:    14.450 HEAT: -158.1255
 CYCLE:     5 TIME:   0.020 TIME LEFT:  2.00D  GRAD.:    23.654 HEAT: -158.1986
 CYCLE:     6 TIME:   0.020 TIME LEFT:  2.00D  GRAD.:    12.567 HEAT: -158.4713
 CYCLE:     7 TIME:   0.055 TIME LEFT:  2.00D  GRAD.:    11.982 HEAT: -158.5197
 CYCLE:     8 TIME:   0.020 TIME LEFT:  2.00D  GRAD.:     7.894 HEAT: -158.5897
 CYCLE:     9 TIME:   0.023 TIME LEFT:  2.00D  GRAD.:     7.116 HEAT: -158.6673
 CYCLE:    10 TIME:   0.023 TIME LEFT:  2.00D  GRAD.:     7.738 HEAT: -158.7821
 CYCLE:    11 TIME:   0.047 TIME LEFT:  2.00D  GRAD.:    13.778 HEAT: -158.8166
 CYCLE:    12 TIME:   0.051 TIME LEFT:  2.00D  GRAD.:     8.828 HEAT: -158.9226
 CYCLE:    13 TIME:   0.027 TIME LEFT:  2.00D  GRAD.:     7.332 HEAT: -159.0273
 CYCLE:    14 TIME:   0.016 TIME LEFT:  2.00D  GRAD.:     7.717 HEAT: -159.1689
 CYCLE:    15 TIME:   0.020 TIME LEFT:  2.00D  GRAD.:     6.170 HEAT: -159.3666
 CYCLE:    16 TIME:   0.020 TIME LEFT:  2.00D  GRAD.:     8.436 HEAT: -159.5572
 CYCLE:    17 TIME:   0.020 TIME LEFT:  2.00D  GRAD.:     4.457 HEAT: -159.6150
 CYCLE:    18 TIME:   0.020 TIME LEFT:  2.00D  GRAD.:     4.691 HEAT: -159.6609
 CYCLE:    19 TIME:   0.020 TIME LEFT:  2.00D  GRAD.:     4.655 HEAT: -159.6873
 CYCLE:    20 TIME:   0.023 TIME LEFT:  2.00D  GRAD.:     3.818 HEAT: -159.7067
 CYCLE:    21 TIME:   0.016 TIME LEFT:  2.00D  GRAD.:     4.044 HEAT: -159.7220
 CYCLE:    22 TIME:   0.023 TIME LEFT:  2.00D  GRAD.:     2.598 HEAT: -159.7361
 CYCLE:    23 TIME:   0.020 TIME LEFT:  2.00D  GRAD.:     2.870 HEAT: -159.7508
 CYCLE:    24 TIME:   0.016 TIME LEFT:  2.00D  GRAD.:     3.888 HEAT: -159.7675
 CYCLE:    25 TIME:   0.020 TIME LEFT:  2.00D  GRAD.:     3.922 HEAT: -159.7927
 CYCLE:    26 TIME:   0.020 TIME LEFT:  2.00D  GRAD.:     3.488 HEAT: -159.8252
 CYCLE:    27 TIME:   0.020 TIME LEFT:  2.00D  GRAD.:     3.668 HEAT: -159.8574
 CYCLE:    28 TIME:   0.016 TIME LEFT:  2.00D  GRAD.:     4.355 HEAT: -159.8957
 CYCLE:    29 TIME:   0.020 TIME LEFT:  2.00D  GRAD.:     5.298 HEAT: -159.9448
 CYCLE:    30 TIME:   0.020 TIME LEFT:  2.00D  GRAD.:     5.236 HEAT: -160.0043
 CYCLE:    31 TIME:   0.016 TIME LEFT:  2.00D  GRAD.:     4.580 HEAT: -160.0683
 CYCLE:    32 TIME:   0.020 TIME LEFT:  2.00D  GRAD.:     3.505 HEAT: -160.1096
 CYCLE:    33 TIME:   0.020 TIME LEFT:  2.00D  GRAD.:     2.779 HEAT: -160.1314
 CYCLE:    34 TIME:   0.023 TIME LEFT:  2.00D  GRAD.:     3.650 HEAT: -160.1441
 CYCLE:    35 TIME:   0.023 TIME LEFT:  2.00D  GRAD.:     2.674 HEAT: -160.1562
 CYCLE:    36 TIME:   0.020 TIME LEFT:  2.00D  GRAD.:     2.262 HEAT: -160.1704
 CYCLE:    37 TIME:   0.023 TIME LEFT:  2.00D  GRAD.:     2.490 HEAT: -160.1917
 CYCLE:    38 TIME:   0.020 TIME LEFT:  2.00D  GRAD.:     2.690 HEAT: -160.2098
 CYCLE:    39 TIME:   0.020 TIME LEFT:  2.00D  GRAD.:     2.950 HEAT: -160.2315
 CYCLE:    40 TIME:   0.020 TIME LEFT:  2.00D  GRAD.:     2.615 HEAT: -160.2558
 CYCLE:    41 TIME:   0.016 TIME LEFT:  2.00D  GRAD.:     3.780 HEAT: -160.2753
 CYCLE:    42 TIME:   0.020 TIME LEFT:  2.00D  GRAD.:     2.570 HEAT: -160.2878
 CYCLE:    43 TIME:   0.020 TIME LEFT:  2.00D  GRAD.:     3.119 HEAT: -160.3050
 CYCLE:    44 TIME:   0.016 TIME LEFT:  2.00D  GRAD.:     2.639 HEAT: -160.3255
 CYCLE:    45 TIME:   0.020 TIME LEFT:  2.00D  GRAD.:     1.900 HEAT: -160.3420
 CYCLE:    46 TIME:   0.020 TIME LEFT:  2.00D  GRAD.:     1.683 HEAT: -160.3508
 CYCLE:    47 TIME:   0.016 TIME LEFT:  2.00D  GRAD.:     1.664 HEAT: -160.3584
 CYCLE:    48 TIME:   0.020 TIME LEFT:  2.00D  GRAD.:     1.834 HEAT: -160.3648
 CYCLE:    49 TIME:   0.020 TIME LEFT:  2.00D  GRAD.:     2.389 HEAT: -160.3761
 CYCLE:    50 TIME:   0.023 TIME LEFT:  2.00D  GRAD.:     3.154 HEAT: -160.3942
 CYCLE:    51 TIME:   0.016 TIME LEFT:  2.00D  GRAD.:     5.728 HEAT: -160.4422
 CYCLE:    52 TIME:   0.020 TIME LEFT:  2.00D  GRAD.:     4.847 HEAT: -160.4882
 CYCLE:    53 TIME:   0.016 TIME LEFT:  2.00D  GRAD.:     4.013 HEAT: -160.5421
 CYCLE:    54 TIME:   0.016 TIME LEFT:  2.00D  GRAD.:     3.392 HEAT: -160.5795
 CYCLE:    55 TIME:   0.020 TIME LEFT:  2.00D  GRAD.:     2.472 HEAT: -160.5914
 CYCLE:    56 TIME:   0.020 TIME LEFT:  2.00D  GRAD.:     1.426 HEAT: -160.6022
 CYCLE:    57 TIME:   0.020 TIME LEFT:  2.00D  GRAD.:     1.363 HEAT: -160.6056
 CYCLE:    58 TIME:   0.016 TIME LEFT:  2.00D  GRAD.:     1.302 HEAT: -160.6100
 CYCLE:    59 TIME:   0.020 TIME LEFT:  2.00D  GRAD.:     2.623 HEAT: -160.6121
 CYCLE:    60 TIME:   0.020 TIME LEFT:  2.00D  GRAD.:     1.757 HEAT: -160.6180
 CYCLE:    61 TIME:   0.023 TIME LEFT:  2.00D  GRAD.:     1.388 HEAT: -160.6240
 CYCLE:    62 TIME:   0.020 TIME LEFT:  2.00D  GRAD.:     1.917 HEAT: -160.6375
 CYCLE:    63 TIME:   0.020 TIME LEFT:  2.00D  GRAD.:     1.970 HEAT: -160.6448
 CYCLE:    64 TIME:   0.020 TIME LEFT:  2.00D  GRAD.:     2.996 HEAT: -160.6587
 CYCLE:    65 TIME:   0.039 TIME LEFT:  2.00D  GRAD.:     4.083 HEAT: -160.6624
 CYCLE:    66 TIME:   0.020 TIME LEFT:  2.00D  GRAD.:     2.083 HEAT: -160.6751
 CYCLE:    67 TIME:   0.020 TIME LEFT:  2.00D  GRAD.:     1.164 HEAT: -160.6817
 CYCLE:    68 TIME:   0.023 TIME LEFT:  2.00D  GRAD.:     1.481 HEAT: -160.6892
 CYCLE:    69 TIME:   0.020 TIME LEFT:  2.00D  GRAD.:     1.974 HEAT: -160.6995
 CYCLE:    70 TIME:   0.020 TIME LEFT:  2.00D  GRAD.:     2.024 HEAT: -160.7081
 CYCLE:    71 TIME:   0.020 TIME LEFT:  2.00D  GRAD.:     2.601 HEAT: -160.7184
 CYCLE:    72 TIME:   0.020 TIME LEFT:  2.00D  GRAD.:     1.709 HEAT: -160.7257
 CYCLE:    73 TIME:   0.020 TIME LEFT:  2.00D  GRAD.:     1.197 HEAT: -160.7327
 CYCLE:    74 TIME:   0.020 TIME LEFT:  2.00D  GRAD.:     1.351 HEAT: -160.7351
 CYCLE:    75 TIME:   0.023 TIME LEFT:  2.00D  GRAD.:     1.146 HEAT: -160.7370
 CYCLE:    76 TIME:   0.020 TIME LEFT:  2.00D  GRAD.:     1.213 HEAT: -160.7396
 CYCLE:    77 TIME:   0.023 TIME LEFT:  2.00D  GRAD.:     1.430 HEAT: -160.7450
 CYCLE:    78 TIME:   0.020 TIME LEFT:  2.00D  GRAD.:     1.606 HEAT: -160.7491
 CYCLE:    79 TIME:   0.020 TIME LEFT:  2.00D  GRAD.:     1.579 HEAT: -160.7555
 CYCLE:    80 TIME:   0.020 TIME LEFT:  2.00D  GRAD.:     1.958 HEAT: -160.7608
 CYCLE:    81 TIME:   0.020 TIME LEFT:  2.00D  GRAD.:     1.361 HEAT: -160.7654
 CYCLE:    82 TIME:   0.020 TIME LEFT:  2.00D  GRAD.:     0.776 HEAT: -160.7672
 CYCLE:    83 TIME:   0.023 TIME LEFT:  2.00D  GRAD.:     0.687 HEAT: -160.7682
 CYCLE:    84 TIME:   0.016 TIME LEFT:  2.00D  GRAD.:     0.676 HEAT: -160.7690
 CYCLE:    85 TIME:   0.020 TIME LEFT:  2.00D  GRAD.:     0.685 HEAT: -160.7696
 CYCLE:    86 TIME:   0.020 TIME LEFT:  2.00D  GRAD.:     0.676 HEAT: -160.7706
 CYCLE:    87 TIME:   0.023 TIME LEFT:  2.00D  GRAD.:     0.879 HEAT: -160.7726
 CYCLE:    88 TIME:   0.020 TIME LEFT:  2.00D  GRAD.:     1.192 HEAT: -160.7759
 CYCLE:    89 TIME:   0.023 TIME LEFT:  2.00D  GRAD.:     2.889 HEAT: -160.7875
 CYCLE:    90 TIME:   0.020 TIME LEFT:  2.00D  GRAD.:     2.627 HEAT: -160.8018
 CYCLE:    91 TIME:   0.020 TIME LEFT:  2.00D  GRAD.:     3.272 HEAT: -160.8323
 CYCLE:    92 TIME:   0.020 TIME LEFT:  2.00D  GRAD.:     4.454 HEAT: -160.8720
 CYCLE:    93 TIME:   0.039 TIME LEFT:  2.00D  GRAD.:     6.326 HEAT: -160.8776
 CYCLE:    94 TIME:   0.039 TIME LEFT:  2.00D  GRAD.:     5.727 HEAT: -160.8856
 CYCLE:    95 TIME:   0.020 TIME LEFT:  2.00D  GRAD.:     2.210 HEAT: -160.9095
 CYCLE:    96 TIME:   0.020 TIME LEFT:  2.00D  GRAD.:     2.549 HEAT: -160.9164
 CYCLE:    97 TIME:   0.016 TIME LEFT:  2.00D  GRAD.:     4.330 HEAT: -160.9218
 CYCLE:    98 TIME:   0.023 TIME LEFT:  2.00D  GRAD.:     2.330 HEAT: -160.9343
 CYCLE:    99 TIME:   0.020 TIME LEFT:  2.00D  GRAD.:     1.631 HEAT: -160.9425
 CYCLE:   100 TIME:   0.020 TIME LEFT:  2.00D  GRAD.:     2.903 HEAT: -160.9543
 CYCLE:   101 TIME:   0.020 TIME LEFT:  2.00D  GRAD.:     4.161 HEAT: -160.9675
 CYCLE:   102 TIME:   0.020 TIME LEFT:  2.00D  GRAD.:     3.440 HEAT: -160.9879
 CYCLE:   103 TIME:   0.039 TIME LEFT:  2.00D  GRAD.:     2.626 HEAT: -161.0023
 CYCLE:   104 TIME:   0.020 TIME LEFT:  2.00D  GRAD.:     3.255 HEAT: -161.0171
 CYCLE:   105 TIME:   0.016 TIME LEFT:  2.00D  GRAD.:     4.026 HEAT: -161.0336
 CYCLE:   106 TIME:   0.078 TIME LEFT:  2.00D  GRAD.:     3.470 HEAT: -161.0426
 CYCLE:   107 TIME:   0.023 TIME LEFT:  2.00D  GRAD.:     2.277 HEAT: -161.0510
 CYCLE:   108 TIME:   0.020 TIME LEFT:  2.00D  GRAD.:     1.008 HEAT: -161.0572
 CYCLE:   109 TIME:   0.020 TIME LEFT:  2.00D  GRAD.:     2.025 HEAT: -161.0714
 CYCLE:   110 TIME:   0.020 TIME LEFT:  2.00D  GRAD.:     4.660 HEAT: -161.0731
 CYCLE:   111 TIME:   0.023 TIME LEFT:  2.00D  GRAD.:     1.392 HEAT: -161.0859
 CYCLE:   112 TIME:   0.020 TIME LEFT:  2.00D  GRAD.:     1.929 HEAT: -161.0909
 CYCLE:   113 TIME:   0.020 TIME LEFT:  2.00D  GRAD.:     1.528 HEAT: -161.0987
 CYCLE:   114 TIME:   0.023 TIME LEFT:  2.00D  GRAD.:     2.766 HEAT: -161.1019
 CYCLE:   115 TIME:   0.020 TIME LEFT:  2.00D  GRAD.:     1.841 HEAT: -161.1077
 CYCLE:   116 TIME:   0.020 TIME LEFT:  2.00D  GRAD.:     1.661 HEAT: -161.1136
 CYCLE:   117 TIME:   0.020 TIME LEFT:  2.00D  GRAD.:     2.925 HEAT: -161.1221
 CYCLE:   118 TIME:   0.016 TIME LEFT:  2.00D  GRAD.:     2.437 HEAT: -161.1329
 CYCLE:   119 TIME:   0.020 TIME LEFT:  2.00D  GRAD.:     3.794 HEAT: -161.1450
 CYCLE:   120 TIME:   0.039 TIME LEFT:  2.00D  GRAD.:     5.594 HEAT: -161.1508
 CYCLE:   121 TIME:   0.020 TIME LEFT:  2.00D  GRAD.:     4.731 HEAT: -161.1522
 CYCLE:   122 TIME:   0.020 TIME LEFT:  2.00D  GRAD.:     6.202 HEAT: -161.1539
 CYCLE:   123 TIME:   0.016 TIME LEFT:  2.00D  GRAD.:     2.432 HEAT: -161.1839
 CYCLE:   124 TIME:   0.020 TIME LEFT:  2.00D  GRAD.:     4.001 HEAT: -161.1961
 CYCLE:   125 TIME:   0.023 TIME LEFT:  2.00D  GRAD.:     3.737 HEAT: -161.2186
 CYCLE:   126 TIME:   0.020 TIME LEFT:  2.00D  GRAD.:     3.423 HEAT: -161.2544
 CYCLE:   127 TIME:   0.031 TIME LEFT:  2.00D  GRAD.:     4.834 HEAT: -161.2746
 CYCLE:   128 TIME:   0.023 TIME LEFT:  2.00D  GRAD.:     6.925 HEAT: -161.2935
 CYCLE:   129 TIME:   0.078 TIME LEFT:  2.00D  GRAD.:     5.632 HEAT: -161.3178
 CYCLE:   130 TIME:   0.020 TIME LEFT:  2.00D  GRAD.:     2.658 HEAT: -161.3379
 CYCLE:   131 TIME:   0.020 TIME LEFT:  2.00D  GRAD.:     1.878 HEAT: -161.3526
 CYCLE:   132 TIME:   0.016 TIME LEFT:  2.00D  GRAD.:     2.477 HEAT: -161.3685
 CYCLE:   133 TIME:   0.023 TIME LEFT:  2.00D  GRAD.:     3.068 HEAT: -161.3887
 CYCLE:   134 TIME:   0.020 TIME LEFT:  2.00D  GRAD.:     5.767 HEAT: -161.3976
 CYCLE:   135 TIME:   0.020 TIME LEFT:  2.00D  GRAD.:     3.506 HEAT: -161.4139
 CYCLE:   136 TIME:   0.016 TIME LEFT:  2.00D  GRAD.:     3.002 HEAT: -161.4208
 CYCLE:   137 TIME:   0.020 TIME LEFT:  2.00D  GRAD.:     2.295 HEAT: -161.4347
 CYCLE:   138 TIME:   0.016 TIME LEFT:  2.00D  GRAD.:     4.824 HEAT: -161.4538
 CYCLE:   139 TIME:   0.020 TIME LEFT:  2.00D  GRAD.:     3.453 HEAT: -161.4811
 CYCLE:   140 TIME:   0.020 TIME LEFT:  2.00D  GRAD.:     3.573 HEAT: -161.5121
 CYCLE:   141 TIME:   0.020 TIME LEFT:  2.00D  GRAD.:     4.606 HEAT: -161.5336
 CYCLE:   142 TIME:   0.016 TIME LEFT:  2.00D  GRAD.:     6.032 HEAT: -161.5457
 CYCLE:   143 TIME:   0.020 TIME LEFT:  2.00D  GRAD.:     2.424 HEAT: -161.5682
 CYCLE:   144 TIME:   0.020 TIME LEFT:  2.00D  GRAD.:     2.347 HEAT: -161.5808
 CYCLE:   145 TIME:   0.016 TIME LEFT:  2.00D  GRAD.:     2.555 HEAT: -161.5909
 CYCLE:   146 TIME:   0.020 TIME LEFT:  2.00D  GRAD.:     2.695 HEAT: -161.6026
 CYCLE:   147 TIME:   0.016 TIME LEFT:  2.00D  GRAD.:     3.948 HEAT: -161.6277
 CYCLE:   148 TIME:   0.023 TIME LEFT:  2.00D  GRAD.:     3.479 HEAT: -161.6472
 CYCLE:   149 TIME:   0.016 TIME LEFT:  2.00D  GRAD.:     6.037 HEAT: -161.6833
 CYCLE:   150 TIME:   0.035 TIME LEFT:  2.00D  GRAD.:     7.266 HEAT: -161.7103
 CYCLE:   151 TIME:   0.020 TIME LEFT:  2.00D  GRAD.:     3.552 HEAT: -161.7524
 CYCLE:   152 TIME:   0.023 TIME LEFT:  2.00D  GRAD.:     3.911 HEAT: -161.8029
 CYCLE:   153 TIME:   0.020 TIME LEFT:  2.00D  GRAD.:     7.781 HEAT: -161.8385
 CYCLE:   154 TIME:   0.020 TIME LEFT:  2.00D  GRAD.:     4.189 HEAT: -161.8579
 CYCLE:   155 TIME:   0.020 TIME LEFT:  2.00D  GRAD.:     2.088 HEAT: -161.8764
 CYCLE:   156 TIME:   0.020 TIME LEFT:  2.00D  GRAD.:     3.126 HEAT: -161.8827
 CYCLE:   157 TIME:   0.020 TIME LEFT:  2.00D  GRAD.:     2.483 HEAT: -161.8868
 CYCLE:   158 TIME:   0.016 TIME LEFT:  2.00D  GRAD.:     1.488 HEAT: -161.8905
 CYCLE:   159 TIME:   0.020 TIME LEFT:  2.00D  GRAD.:     1.451 HEAT: -161.8946
 CYCLE:   160 TIME:   0.020 TIME LEFT:  2.00D  GRAD.:     2.056 HEAT: -161.9017
 CYCLE:   161 TIME:   0.016 TIME LEFT:  2.00D  GRAD.:     2.885 HEAT: -161.9102
 CYCLE:   162 TIME:   0.023 TIME LEFT:  2.00D  GRAD.:     3.190 HEAT: -161.9223
 CYCLE:   163 TIME:   0.020 TIME LEFT:  2.00D  GRAD.:     2.973 HEAT: -161.9378
 CYCLE:   164 TIME:   0.043 TIME LEFT:  2.00D  GRAD.:     3.642 HEAT: -161.9507
 CYCLE:   165 TIME:   0.020 TIME LEFT:  2.00D  GRAD.:     4.140 HEAT: -161.9587
 CYCLE:   166 TIME:   0.016 TIME LEFT:  2.00D  GRAD.:     2.993 HEAT: -161.9705
 CYCLE:   167 TIME:   0.020 TIME LEFT:  2.00D  GRAD.:     2.431 HEAT: -161.9786
 CYCLE:   168 TIME:   0.020 TIME LEFT:  2.00D  GRAD.:     2.629 HEAT: -161.9904
 CYCLE:   169 TIME:   0.016 TIME LEFT:  2.00D  GRAD.:     2.839 HEAT: -162.0010
 CYCLE:   170 TIME:   0.020 TIME LEFT:  2.00D  GRAD.:     4.213 HEAT: -162.0091
 CYCLE:   171 TIME:   0.016 TIME LEFT:  2.00D  GRAD.:     1.920 HEAT: -162.0202
 CYCLE:   172 TIME:   0.020 TIME LEFT:  2.00D  GRAD.:     1.423 HEAT: -162.0272
 CYCLE:   173 TIME:   0.020 TIME LEFT:  2.00D  GRAD.:     2.822 HEAT: -162.0359
 CYCLE:   174 TIME:   0.020 TIME LEFT:  2.00D  GRAD.:     1.783 HEAT: -162.0427
 CYCLE:   175 TIME:   0.020 TIME LEFT:  2.00D  GRAD.:     1.771 HEAT: -162.0500
 CYCLE:   176 TIME:   0.020 TIME LEFT:  2.00D  GRAD.:     3.332 HEAT: -162.0573
 CYCLE:   177 TIME:   0.016 TIME LEFT:  2.00D  GRAD.:     2.930 HEAT: -162.0648
 CYCLE:   178 TIME:   0.023 TIME LEFT:  2.00D  GRAD.:     1.689 HEAT: -162.0739
 CYCLE:   179 TIME:   0.016 TIME LEFT:  2.00D  GRAD.:     2.329 HEAT: -162.0797
 CYCLE:   180 TIME:   0.023 TIME LEFT:  2.00D  GRAD.:     2.256 HEAT: -162.0849
 CYCLE:   181 TIME:   0.020 TIME LEFT:  2.00D  GRAD.:     2.146 HEAT: -162.0929
 CYCLE:   182 TIME:   0.020 TIME LEFT:  2.00D  GRAD.:     3.467 HEAT: -162.1058
 CYCLE:   183 TIME:   0.020 TIME LEFT:  2.00D  GRAD.:     4.250 HEAT: -162.1249
 CYCLE:   184 TIME:   0.020 TIME LEFT:  2.00D  GRAD.:     4.176 HEAT: -162.1620
 CYCLE:   185 TIME:   0.055 TIME LEFT:  2.00D  GRAD.:     4.409 HEAT: -162.1737
 CYCLE:   186 TIME:   0.020 TIME LEFT:  2.00D  GRAD.:     2.245 HEAT: -162.1881
 CYCLE:   187 TIME:   0.020 TIME LEFT:  2.00D  GRAD.:     3.966 HEAT: -162.2018
 CYCLE:   188 TIME:   0.016 TIME LEFT:  2.00D  GRAD.:     2.834 HEAT: -162.2131
 CYCLE:   189 TIME:   0.020 TIME LEFT:  2.00D  GRAD.:     2.183 HEAT: -162.2302
 CYCLE:   190 TIME:   0.020 TIME LEFT:  2.00D  GRAD.:     5.571 HEAT: -162.2321
 CYCLE:   191 TIME:   0.023 TIME LEFT:  2.00D  GRAD.:     2.267 HEAT: -162.2483
 CYCLE:   192 TIME:   0.016 TIME LEFT:  2.00D  GRAD.:     2.962 HEAT: -162.2526
 CYCLE:   193 TIME:   0.023 TIME LEFT:  2.00D  GRAD.:     2.151 HEAT: -162.2569
 CYCLE:   194 TIME:   0.020 TIME LEFT:  2.00D  GRAD.:     1.313 HEAT: -162.2598
 CYCLE:   195 TIME:   0.020 TIME LEFT:  2.00D  GRAD.:     1.446 HEAT: -162.2643
 CYCLE:   196 TIME:   0.020 TIME LEFT:  2.00D  GRAD.:     2.252 HEAT: -162.2732
 CYCLE:   197 TIME:   0.020 TIME LEFT:  2.00D  GRAD.:     2.488 HEAT: -162.2838
 CYCLE:   198 TIME:   0.020 TIME LEFT:  2.00D  GRAD.:     1.871 HEAT: -162.2929
 CYCLE:   199 TIME:   0.020 TIME LEFT:  2.00D  GRAD.:     3.363 HEAT: -162.2955
 CYCLE:   200 TIME:   0.020 TIME LEFT:  2.00D  GRAD.:     2.454 HEAT: -162.3017
 CYCLE:   201 TIME:   0.020 TIME LEFT:  2.00D  GRAD.:     1.496 HEAT: -162.3065
 CYCLE:   202 TIME:   0.020 TIME LEFT:  2.00D  GRAD.:     1.474 HEAT: -162.3122
 CYCLE:   203 TIME:   0.020 TIME LEFT:  2.00D  GRAD.:     2.037 HEAT: -162.3180
 CYCLE:   204 TIME:   0.020 TIME LEFT:  2.00D  GRAD.:     1.499 HEAT: -162.3227
 CYCLE:   205 TIME:   0.020 TIME LEFT:  2.00D  GRAD.:     0.897 HEAT: -162.3261
 CYCLE:   206 TIME:   0.020 TIME LEFT:  2.00D  GRAD.:     0.767 HEAT: -162.3289
 CYCLE:   207 TIME:   0.016 TIME LEFT:  2.00D  GRAD.:     0.830 HEAT: -162.3306
 CYCLE:   208 TIME:   0.020 TIME LEFT:  2.00D  GRAD.:     0.693 HEAT: -162.3321
 CYCLE:   209 TIME:   0.020 TIME LEFT:  2.00D  GRAD.:     1.381 HEAT: -162.3326
 CYCLE:   210 TIME:   0.016 TIME LEFT:  2.00D  GRAD.:     0.774 HEAT: -162.3338
 CYCLE:   211 TIME:   0.023 TIME LEFT:  2.00D  GRAD.:     0.591 HEAT: -162.3348
 CYCLE:   212 TIME:   0.016 TIME LEFT:  2.00D  GRAD.:     0.967 HEAT: -162.3368
 CYCLE:   213 TIME:   0.023 TIME LEFT:  2.00D  GRAD.:     1.282 HEAT: -162.3395
 CYCLE:   214 TIME:   0.016 TIME LEFT:  2.00D  GRAD.:     2.177 HEAT: -162.3453
 CYCLE:   215 TIME:   0.020 TIME LEFT:  2.00D  GRAD.:     1.928 HEAT: -162.3499
 CYCLE:   216 TIME:   0.016 TIME LEFT:  2.00D  GRAD.:     1.994 HEAT: -162.3569
 CYCLE:   217 TIME:   0.023 TIME LEFT:  2.00D  GRAD.:     1.193 HEAT: -162.3611
 CYCLE:   218 TIME:   0.016 TIME LEFT:  2.00D  GRAD.:     0.841 HEAT: -162.3623
 CYCLE:   219 TIME:   0.020 TIME LEFT:  2.00D  GRAD.:     0.876 HEAT: -162.3635
 CYCLE:   220 TIME:   0.020 TIME LEFT:  2.00D  GRAD.:     1.032 HEAT: -162.3641
 CYCLE:   221 TIME:   0.020 TIME LEFT:  2.00D  GRAD.:     1.414 HEAT: -162.3653
 CYCLE:   222 TIME:   0.023 TIME LEFT:  2.00D  GRAD.:     1.362 HEAT: -162.3670
 CYCLE:   223 TIME:   0.016 TIME LEFT:  2.00D  GRAD.:     1.599 HEAT: -162.3733
 CYCLE:   224 TIME:   0.023 TIME LEFT:  2.00D  GRAD.:     1.282 HEAT: -162.3780
 CYCLE:   225 TIME:   0.023 TIME LEFT:  2.00D  GRAD.:     1.368 HEAT: -162.3837
 CYCLE:   226 TIME:   0.016 TIME LEFT:  2.00D  GRAD.:     1.704 HEAT: -162.3872
 CYCLE:   227 TIME:   0.023 TIME LEFT:  2.00D  GRAD.:     1.446 HEAT: -162.3904
 CYCLE:   228 TIME:   0.020 TIME LEFT:  2.00D  GRAD.:     1.913 HEAT: -162.3948
 CYCLE:   229 TIME:   0.023 TIME LEFT:  2.00D  GRAD.:     2.198 HEAT: -162.4003
 CYCLE:   230 TIME:   0.020 TIME LEFT:  2.00D  GRAD.:     4.804 HEAT: -162.4043
 CYCLE:   231 TIME:   0.047 TIME LEFT:  2.00D  GRAD.:     3.781 HEAT: -162.4233
 CYCLE:   232 TIME:   0.027 TIME LEFT:  2.00D  GRAD.:     2.214 HEAT: -162.4356
 CYCLE:   233 TIME:   0.023 TIME LEFT:  2.00D  GRAD.:     4.207 HEAT: -162.4366
 CYCLE:   234 TIME:   0.023 TIME LEFT:  2.00D  GRAD.:     0.880 HEAT: -162.4464
 CYCLE:   235 TIME:   0.020 TIME LEFT:  2.00D  GRAD.:     2.289 HEAT: -162.4463
 CYCLE:   236 TIME:   0.016 TIME LEFT:  2.00D  GRAD.:     0.830 HEAT: -162.4494
 CYCLE:   237 TIME:   0.023 TIME LEFT:  2.00D  GRAD.:     0.709 HEAT: -162.4500
 CYCLE:   238 TIME:   0.020 TIME LEFT:  2.00D  GRAD.:     0.479 HEAT: -162.4508
 CYCLE:   239 TIME:   0.016 TIME LEFT:  2.00D  GRAD.:     0.256 HEAT: -162.4512
 CYCLE:   240 TIME:   0.020 TIME LEFT:  2.00D  GRAD.:     0.185 HEAT: -162.4513
 CYCLE:   241 TIME:   0.016 TIME LEFT:  2.00D  GRAD.:     0.172 HEAT: -162.4513
 CYCLE:   242 TIME:   0.023 TIME LEFT:  2.00D  GRAD.:     0.213 HEAT: -162.4514
 CYCLE:   243 TIME:   0.016 TIME LEFT:  2.00D  GRAD.:     0.153 HEAT: -162.4514
 CYCLE:   244 TIME:   0.020 TIME LEFT:  2.00D  GRAD.:     0.094 HEAT: -162.4515
 CYCLE:   245 TIME:   0.023 TIME LEFT:  2.00D  GRAD.:     0.064 HEAT: -162.4515
 CYCLE:   246 TIME:   0.020 TIME LEFT:  2.00D  GRAD.:     0.079 HEAT: -162.4515
 CYCLE:   247 TIME:   0.020 TIME LEFT:  2.00D  GRAD.:     0.060 HEAT: -162.4515
 CYCLE:   248 TIME:   0.020 TIME LEFT:  2.00D  GRAD.:     0.046 HEAT: -162.4515

     GRADIENT =  0.04595 IS LESS THAN CUTOFF =  0.05000



 -------------------------------------------------------------------------------
 PRECISE LARGE CHARGE=0 SINGLET  PM7
 3 metanoly



     GEOMETRY OPTIMISED USING EIGENVECTOR FOLLOWING (EF).     
     SCF FIELD WAS ACHIEVED                                   


                              PM7 CALCULATION
                                                       MOPAC v22.1.0 Windows
                                                       Mon Jan 29 13:37:56 2024




          FINAL HEAT OF FORMATION =       -162.45151 KCAL/MOL =    -679.69712 KJ/MOL


          COSMO AREA              =        157.40 SQUARE ANGSTROMS
          COSMO VOLUME            =        145.06 CUBIC ANGSTROMS

          GRADIENT NORM           =          0.04595          =       0.01083 PER ATOM
          IONIZATION POTENTIAL    =         10.170183 EV
          HOMO LUMO ENERGIES (EV) =        -10.170  2.318
          NO. OF FILLED LEVELS    =         21
          MOLECULAR WEIGHT        =         96.1260         POINT GROUP:  C1  

          MOLECULAR DIMENSIONS (Angstroms)

            Atom       Atom       Distance
            H    14    H     8     6.25917
            H    11    H     5     5.76414
            H     6    H    10     2.71831


          SCF CALCULATIONS        =        270
 
          WALL-CLOCK TIME         =      5.484 SECONDS
          COMPUTATION TIME        =     10.453 SECONDS




   ATOM   CHEMICAL          X               Y               Z
  NUMBER   SYMBOL      (ANGSTROMS)     (ANGSTROMS)     (ANGSTROMS)
 
     1       C         -2.36623518  *   2.00169983  *   3.48698412  *
     2       O         -2.67437613  *   1.55111787  *   2.17358379  *
     3       H         -2.25325536  *   3.08953073  *   3.37743204  *
     4       H         -1.41951027  *   1.56718368  *   3.83116441  *
     5       H         -3.19259835  *   1.76271662  *   4.16173635  *
     6       H         -2.73957737  *   0.57465247  *   2.15602279  *
     7       C         -0.72199333  *   3.43158319  *  -0.05009033  *
     8       H         -1.39367656  *   3.12518764  *  -0.85905617  *
     9       O         -0.49342646  *   2.34235276  *   0.82109176  *
    10       H         -1.13691715  *   4.28068985  *   0.50327061  *
    11       H          0.27170197  *   3.67431793  *  -0.44601954  *
    12       H         -1.34492484  *   2.03327326  *   1.22961326  *
    13       C          1.81132506  *   3.11523170  *   3.35300731  *
    14       H          1.99285577  *   3.39402321  *   4.39796664  *
    15       H          2.21589471  *   2.11927863  *   3.14439317  *
    16       H          2.24455850  *   3.85958876  *   2.67692778  *
    17       O          0.40830613  *   3.10763705  *   3.23299241  *
    18       H          0.13498308  *   2.84665107  *   2.31707583  *

                             CARTESIAN COORDINATES

   1    C       -2.366235175     2.001699831     3.486984122
   2    O       -2.674376129     1.551117871     2.173583787
   3    H       -2.253255365     3.089530734     3.377432040
   4    H       -1.419510266     1.567183684     3.831164407
   5    H       -3.192598351     1.762716616     4.161736353
   6    H       -2.739577370     0.574652468     2.156022789
   7    C       -0.721993333     3.431583188    -0.050090333
   8    H       -1.393676559     3.125187638    -0.859056169
   9    O       -0.493426461     2.342352764     0.821091756
  10    H       -1.136917151     4.280689848     0.503270610
  11    H        0.271701969     3.674317929    -0.446019538
  12    H       -1.344924836     2.033273257     1.229613256
  13    C        1.811325064     3.115231702     3.353007312
  14    H        1.992855769     3.394023209     4.397966644
  15    H        2.215894708     2.119278631     3.144393165
  16    H        2.244558496     3.859588756     2.676927785
  17    O        0.408306132     3.107637050     3.232992406
  18    H        0.134983082     2.846651071     2.317075835


           Empirical Formula: C3 H12 O3  =    18 atoms



      MOLECULAR POINT GROUP   :   C1  


                  EIGENVALUES  
 -29.88690 -29.04460 -28.35308 -24.17099 -23.89714 -23.46315 -17.77662 -17.40418
 -16.97592 -15.21048 -14.97288 -14.92059 -14.68698 -14.62267 -14.19140 -12.63372
 -12.25083 -11.86365 -11.06234 -10.55639 -10.17018   2.31751   3.03974   3.70620
   5.19369   5.51126   5.55729   5.63429   5.74631   5.84885   5.92230   6.11181
   6.24583   6.43136   6.63558   7.15969


              NET ATOMIC CHARGES AND DIPOLE CONTRIBUTIONS

  ATOM NO.   TYPE          CHARGE      No. of ELECS.   s-Pop       p-Pop       
    1          C          -0.155456        4.1555     1.08436     3.07110
    2          O          -0.559948        6.5599     1.84538     4.71457
    3          H           0.156195        0.8438     0.84381
    4          H           0.141872        0.8581     0.85813
    5          H           0.124112        0.8759     0.87589
    6          H           0.322373        0.6776     0.67763
    7          C          -0.139692        4.1397     1.07792     3.06177
    8          H           0.121421        0.8786     0.87858
    9          O          -0.593604        6.5936     1.84738     4.74622
   10          H           0.119312        0.8807     0.88069
   11          H           0.137776        0.8622     0.86222
   12          H           0.355951        0.6440     0.64405
   13          C          -0.133990        4.1340     1.07434     3.05965
   14          H           0.132671        0.8673     0.86733
   15          H           0.111880        0.8881     0.88812
   16          H           0.110444        0.8896     0.88956
   17          O          -0.602825        6.6028     1.84856     4.75426
   18          H           0.351510        0.6485     0.64849
 DIPOLE           X         Y         Z       TOTAL
 POINT-CHG.    -0.005     0.015     0.107     0.108
 HYBRID        -0.504    -0.634    -0.238     0.844
 SUM           -0.509    -0.619    -0.131     0.812


          ATOMIC ORBITAL ELECTRON POPULATIONS

     Atom    s        px        py        pz   
    1  C   1.08436   1.12056   1.12110   0.82944
    2  O   1.84538   1.93567   1.39000   1.38889
    3  H   0.84381
    4  H   0.85813
    5  H   0.87589
    6  H   0.67763
    7  C   1.07792   1.13951   0.92575   0.99652
    8  H   0.87858
    9  O   1.84738   1.50668   1.56405   1.67550
   10  H   0.88069
   11  H   0.86222
   12  H   0.64405
   13  C   1.07434   0.80600   1.12120   1.13245
   14  H   0.86733
   15  H   0.88812
   16  H   0.88956
   17  O   1.84856   1.29303   1.94678   1.51445
   18  H   0.64849

 **********************
 *                    *
 * JOB ENDED NORMALLY *
 *                    *
 **********************



 TOTAL JOB TIME:             5.49 SECONDS

 == MOPAC DONE ==
