 *******************************************************************************
 **                                                                           **
 **                              MOPAC v22.1.0                                **
 **                                                                           **
 *******************************************************************************
 **          Digital Object Identifier (DOI): 10.5281/zenodo.6511958          **
 **    Visit the DOI location for information on how to cite this program.    **
 *******************************************************************************

                              PM7 CALCULATION RESULTS

 *******************************************************************************
 *  CALCULATION DONE:                                Sat Dec 23 21:30:21 2023  *
 *  PM7        - The PM7 Hamiltonian to be used
 *  SINGLET    - SPIN STATE DEFINED AS A SINGLET
 *
 *
 *
 *                 CHARGE ON SYSTEM = 0
 *
 *
 *
 *  PRECISE    - TIGHTER CRITERIA TO BE USED
 *  T=         - A TIME OF 172800.0 SECONDS REQUESTED
 *  DUMP=N     - RESTART FILE WRITTEN EVERY 7200.0 SECONDS REQUESTED
 *  AUX        - OUTPUT AUXILIARY INFORMATION
 *  LARGE      - EXPANDED OUTPUT TO BE PRINTED
 *******************************************************************************
 AUX LARGE CHARGE=0 SINGLET  PM7 PRECISE
 dimer  kyseliny octovej

   ATOM   CHEMICAL          X               Y               Z
  NUMBER   SYMBOL      (ANGSTROMS)     (ANGSTROMS)     (ANGSTROMS)
 
     1       C         -7.66214000  *   1.61962000  *  -0.12696000  *
     2       C         -6.20780000  *   1.87409000  *   0.10046000  *
     3       H         -8.05689000  *   2.36995000  *  -0.81787000  *
     4       H         -8.20397000  *   1.69630000  *   0.81890000  *
     5       H         -7.80040000  *   0.63055000  *  -0.57061000  *
     6       O         -5.55213000  *   2.78166000  *  -0.39180000  *
     7       O         -5.66298000  *   0.97123000  *   0.93663000  *
     8       H         -4.70372000  *   1.20958000  *   1.03461000  *
     9       C         -2.53767000  *   2.74073000  *   0.51080000  *
    10       C         -1.08373000  *   2.99627000  *   0.73964000  *
    11       O         -3.19327000  *   1.83297000  *   1.00281000  *
    12       O         -3.08261000  *   3.64391000  *  -0.32495000  *
    13       H         -0.68640000  *   2.23917000  *   1.42162000  *
    14       H         -0.94757000  *   3.98084000  *   1.19376000  *
    15       H         -0.54250000  *   2.93108000  *  -0.20745000  *
    16       H         -4.04178000  *   3.40531000  *  -0.42326000  *
 


          CARTESIAN COORDINATES 

    NO.       ATOM           X           Y           Z

     1         C         -7.6621      1.6196     -0.1270
     2         C         -6.2078      1.8741      0.1005
     3         H         -8.0569      2.3700     -0.8179
     4         H         -8.2040      1.6963      0.8189
     5         H         -7.8004      0.6306     -0.5706
     6         O         -5.5521      2.7817     -0.3918
     7         O         -5.6630      0.9712      0.9366
     8         H         -4.7037      1.2096      1.0346
     9         C         -2.5377      2.7407      0.5108
    10         C         -1.0837      2.9963      0.7396
    11         O         -3.1933      1.8330      1.0028
    12         O         -3.0826      3.6439     -0.3250
    13         H         -0.6864      2.2392      1.4216
    14         H         -0.9476      3.9808      1.1938
    15         H         -0.5425      2.9311     -0.2075
    16         H         -4.0418      3.4053     -0.4233

 General Reference for PM7:
 "Optimization of Parameters for Semiempirical Methods VI: More Modifications to the 
 NDDO Approximations and Re-optimization of Parameters", J. J. P. Stewart, J. Mol. Mod., 1:32, 19 (2013)
 https://link.springer.com/article/10.1007/s00894-012-1667-x

           Empirical Formula: C4 H8 O4  =    16 atoms



      MOLECULAR POINT GROUP   :   C2h 


 SINGLET STATE CALCULATION


      RHF CALCULATION, NO. OF DOUBLY OCCUPIED LEVELS = 24


          Geometry optimization using EF

          DIAGONAL MATRIX USED AS START HESSIAN

 CYCLE:     1 TIME:   0.039 TIME LEFT:  2.00D  GRAD.:    68.264 HEAT: -216.1147
 CYCLE:     2 TIME:   0.055 TIME LEFT:  2.00D  GRAD.:    86.740 HEAT: -216.9518
 CYCLE:     3 TIME:   0.047 TIME LEFT:  2.00D  GRAD.:    46.463 HEAT: -218.0392
 CYCLE:     4 TIME:   0.016 TIME LEFT:  2.00D  GRAD.:    52.900 HEAT: -218.0977
 CYCLE:     5 TIME:   0.031 TIME LEFT:  2.00D  GRAD.:    29.575 HEAT: -218.9111
 CYCLE:     6 TIME:   0.047 TIME LEFT:  2.00D  GRAD.:    17.665 HEAT: -219.2746
 CYCLE:     7 TIME:   0.023 TIME LEFT:  2.00D  GRAD.:    28.467 HEAT: -219.3523
 CYCLE:     8 TIME:   0.031 TIME LEFT:  2.00D  GRAD.:    36.437 HEAT: -219.6020
 CYCLE:     9 TIME:   0.031 TIME LEFT:  2.00D  GRAD.:    31.442 HEAT: -219.7091
 CYCLE:    10 TIME:   0.016 TIME LEFT:  2.00D  GRAD.:    11.697 HEAT: -220.0604
 CYCLE:    11 TIME:   0.016 TIME LEFT:  2.00D  GRAD.:    25.132 HEAT: -220.1709
 CYCLE:    12 TIME:   0.016 TIME LEFT:  2.00D  GRAD.:    19.750 HEAT: -220.5024
 CYCLE:    13 TIME:   0.031 TIME LEFT:  2.00D  GRAD.:    24.528 HEAT: -220.9098
 CYCLE:    14 TIME:   0.008 TIME LEFT:  2.00D  GRAD.:    38.538 HEAT: -220.9398
 CYCLE:    15 TIME:   0.016 TIME LEFT:  2.00D  GRAD.:    18.450 HEAT: -221.4196
 CYCLE:    16 TIME:   0.031 TIME LEFT:  2.00D  GRAD.:    15.764 HEAT: -221.5292
 CYCLE:    17 TIME:   0.016 TIME LEFT:  2.00D  GRAD.:     6.169 HEAT: -221.6613
 CYCLE:    18 TIME:   0.000 TIME LEFT:  2.00D  GRAD.:     5.350 HEAT: -221.6981
 CYCLE:    19 TIME:   0.016 TIME LEFT:  2.00D  GRAD.:     4.760 HEAT: -221.7405
 CYCLE:    20 TIME:   0.016 TIME LEFT:  2.00D  GRAD.:     5.063 HEAT: -221.8040
 CYCLE:    21 TIME:   0.023 TIME LEFT:  2.00D  GRAD.:     5.516 HEAT: -221.8571
 CYCLE:    22 TIME:   0.031 TIME LEFT:  2.00D  GRAD.:     4.049 HEAT: -221.8985
 CYCLE:    23 TIME:   0.023 TIME LEFT:  2.00D  GRAD.:     2.734 HEAT: -221.9199
 CYCLE:    24 TIME:   0.016 TIME LEFT:  2.00D  GRAD.:     1.973 HEAT: -221.9270
 CYCLE:    25 TIME:   0.008 TIME LEFT:  2.00D  GRAD.:     2.361 HEAT: -221.9273
 CYCLE:    26 TIME:   0.031 TIME LEFT:  2.00D  GRAD.:     1.602 HEAT: -221.9309
 CYCLE:    27 TIME:   0.023 TIME LEFT:  2.00D  GRAD.:     1.814 HEAT: -221.9305
 CYCLE:    28 TIME:   0.008 TIME LEFT:  2.00D  GRAD.:     1.352 HEAT: -221.9328
 CYCLE:    29 TIME:   0.023 TIME LEFT:  2.00D  GRAD.:     1.898 HEAT: -221.9305
 CYCLE:    30 TIME:   0.008 TIME LEFT:  2.00D  GRAD.:     1.331 HEAT: -221.9335
 CYCLE:    31 TIME:   0.023 TIME LEFT:  2.00D  GRAD.:     1.929 HEAT: -221.9317
 CYCLE:    32 TIME:   0.016 TIME LEFT:  2.00D  GRAD.:     1.146 HEAT: -221.9358
 CYCLE:    33 TIME:   0.023 TIME LEFT:  2.00D  GRAD.:     1.667 HEAT: -221.9343
 CYCLE:    34 TIME:   0.016 TIME LEFT:  2.00D  GRAD.:     1.156 HEAT: -221.9370
 CYCLE:    35 TIME:   0.023 TIME LEFT:  2.00D  GRAD.:     1.829 HEAT: -221.9352
 CYCLE:    36 TIME:   0.008 TIME LEFT:  2.00D  GRAD.:     1.018 HEAT: -221.9389
 CYCLE:    37 TIME:   0.023 TIME LEFT:  2.00D  GRAD.:     1.732 HEAT: -221.9361
 CYCLE:    38 TIME:   0.023 TIME LEFT:  2.00D  GRAD.:     1.089 HEAT: -221.9396
 CYCLE:    39 TIME:   0.016 TIME LEFT:  2.00D  GRAD.:     1.853 HEAT: -221.9363
 CYCLE:    40 TIME:   0.023 TIME LEFT:  2.00D  GRAD.:     1.096 HEAT: -221.9409
 CYCLE:    41 TIME:   0.016 TIME LEFT:  2.00D  GRAD.:     2.216 HEAT: -221.9326
 CYCLE:    42 TIME:   0.023 TIME LEFT:  2.00D  GRAD.:     1.159 HEAT: -221.9403
 CYCLE:    43 TIME:   0.016 TIME LEFT:  2.00D  GRAD.:     2.177 HEAT: -221.9331
 CYCLE:    44 TIME:   0.016 TIME LEFT:  2.00D  GRAD.:     1.259 HEAT: -221.9416
 CYCLE:    45 TIME:   0.008 TIME LEFT:  2.00D  GRAD.:     1.665 HEAT: -221.9376
 CYCLE:    46 TIME:   0.023 TIME LEFT:  2.00D  GRAD.:     2.822 HEAT: -221.9417
 CYCLE:    47 TIME:   0.141 TIME LEFT:  2.00D  GRAD.:     2.001 HEAT: -221.9367
 CYCLE:    48 TIME:   0.008 TIME LEFT:  2.00D  GRAD.:     1.703 HEAT: -221.9416
 CYCLE:    49 TIME:   0.055 TIME LEFT:  2.00D  GRAD.:     2.763 HEAT: -221.9368
 CYCLE:    50 TIME:   0.008 TIME LEFT:  2.00D  GRAD.:     0.920 HEAT: -221.9415
 CYCLE:    51 TIME:   0.016 TIME LEFT:  2.00D  GRAD.:     1.635 HEAT: -221.9375
 CYCLE:    52 TIME:   0.016 TIME LEFT:  2.00D  GRAD.:     1.185 HEAT: -221.9429
 CYCLE:    53 TIME:   0.031 TIME LEFT:  2.00D  GRAD.:     1.830 HEAT: -221.9365
 CYCLE:    54 TIME:   0.023 TIME LEFT:  2.00D  GRAD.:     0.952 HEAT: -221.9420
 CYCLE:    55 TIME:   0.016 TIME LEFT:  2.00D  GRAD.:     1.733 HEAT: -221.9348
 CYCLE:    56 TIME:   0.016 TIME LEFT:  2.00D  GRAD.:     1.040 HEAT: -221.9427
 CYCLE:    57 TIME:   0.023 TIME LEFT:  2.00D  GRAD.:     1.416 HEAT: -221.9383
 CYCLE:    58 TIME:   0.023 TIME LEFT:  2.00D  GRAD.:     0.916 HEAT: -221.9427
 CYCLE:    59 TIME:   0.031 TIME LEFT:  2.00D  GRAD.:     1.517 HEAT: -221.9386
 CYCLE:    60 TIME:   0.023 TIME LEFT:  2.00D  GRAD.:     0.998 HEAT: -221.9433
 CYCLE:    61 TIME:   0.031 TIME LEFT:  2.00D  GRAD.:     1.512 HEAT: -221.9379
 CYCLE:    62 TIME:   0.016 TIME LEFT:  2.00D  GRAD.:     0.948 HEAT: -221.9427
 CYCLE:    63 TIME:   0.031 TIME LEFT:  2.00D  GRAD.:     1.549 HEAT: -221.9388
 CYCLE:    64 TIME:   0.023 TIME LEFT:  2.00D  GRAD.:     0.985 HEAT: -221.9435
 CYCLE:    65 TIME:   0.031 TIME LEFT:  2.00D  GRAD.:     1.535 HEAT: -221.9381
 CYCLE:    66 TIME:   0.031 TIME LEFT:  2.00D  GRAD.:     0.961 HEAT: -221.9428
 CYCLE:    67 TIME:   0.031 TIME LEFT:  2.00D  GRAD.:     1.560 HEAT: -221.9389
 CYCLE:    68 TIME:   0.016 TIME LEFT:  2.00D  GRAD.:     0.981 HEAT: -221.9436
 CYCLE:    69 TIME:   0.055 TIME LEFT:  2.00D  GRAD.:     1.546 HEAT: -221.9383
 CYCLE:    70 TIME:   0.016 TIME LEFT:  2.00D  GRAD.:     0.969 HEAT: -221.9429
 CYCLE:    71 TIME:   0.031 TIME LEFT:  2.00D  GRAD.:     1.576 HEAT: -221.9389
 CYCLE:    72 TIME:   0.023 TIME LEFT:  2.00D  GRAD.:     0.982 HEAT: -221.9436
 CYCLE:    73 TIME:   0.031 TIME LEFT:  2.00D  GRAD.:     1.566 HEAT: -221.9384
 CYCLE:    74 TIME:   0.031 TIME LEFT:  2.00D  GRAD.:     0.977 HEAT: -221.9430
 CYCLE:    75 TIME:   0.031 TIME LEFT:  2.00D  GRAD.:     1.598 HEAT: -221.9389
 CYCLE:    76 TIME:   0.016 TIME LEFT:  2.00D  GRAD.:     0.985 HEAT: -221.9436
 CYCLE:    77 TIME:   0.031 TIME LEFT:  2.00D  GRAD.:     1.589 HEAT: -221.9384
 CYCLE:    78 TIME:   0.023 TIME LEFT:  2.00D  GRAD.:     0.984 HEAT: -221.9431
 CYCLE:    79 TIME:   0.047 TIME LEFT:  2.00D  GRAD.:     1.619 HEAT: -221.9389
 CYCLE:    80 TIME:   0.016 TIME LEFT:  2.00D  GRAD.:     0.988 HEAT: -221.9436
 CYCLE:    81 TIME:   0.031 TIME LEFT:  2.00D  GRAD.:     1.609 HEAT: -221.9385
 CYCLE:    82 TIME:   0.016 TIME LEFT:  2.00D  GRAD.:     0.990 HEAT: -221.9431
 CYCLE:    83 TIME:   0.039 TIME LEFT:  2.00D  GRAD.:     1.641 HEAT: -221.9389
 CYCLE:    84 TIME:   0.016 TIME LEFT:  2.00D  GRAD.:     0.991 HEAT: -221.9436
 CYCLE:    85 TIME:   0.031 TIME LEFT:  2.00D  GRAD.:     1.607 HEAT: -221.9388
 CYCLE:    86 TIME:   0.016 TIME LEFT:  2.00D  GRAD.:     0.989 HEAT: -221.9433
 CYCLE:    87 TIME:   0.039 TIME LEFT:  2.00D  GRAD.:     1.631 HEAT: -221.9392
 CYCLE:    88 TIME:   0.016 TIME LEFT:  2.00D  GRAD.:     0.991 HEAT: -221.9436
 CYCLE:    89 TIME:   0.031 TIME LEFT:  2.00D  GRAD.:     1.620 HEAT: -221.9389
 CYCLE:    90 TIME:   0.016 TIME LEFT:  2.00D  GRAD.:     0.993 HEAT: -221.9433
 CYCLE:    91 TIME:   0.039 TIME LEFT:  2.00D  GRAD.:     1.640 HEAT: -221.9393
 CYCLE:    92 TIME:   0.016 TIME LEFT:  2.00D  GRAD.:     0.994 HEAT: -221.9436
 CYCLE:    93 TIME:   0.031 TIME LEFT:  2.00D  GRAD.:     1.630 HEAT: -221.9390
 CYCLE:    94 TIME:   0.031 TIME LEFT:  2.00D  GRAD.:     0.996 HEAT: -221.9433
 CYCLE:    95 TIME:   0.031 TIME LEFT:  2.00D  GRAD.:     1.646 HEAT: -221.9393
 CYCLE:    96 TIME:   0.023 TIME LEFT:  2.00D  GRAD.:     0.997 HEAT: -221.9436
 CYCLE:    97 TIME:   0.039 TIME LEFT:  2.00D  GRAD.:     1.637 HEAT: -221.9391
 CYCLE:    98 TIME:   0.023 TIME LEFT:  2.00D  GRAD.:     0.999 HEAT: -221.9434
 CYCLE:    99 TIME:   0.031 TIME LEFT:  2.00D  GRAD.:     1.652 HEAT: -221.9394
 CYCLE:   100 TIME:   0.016 TIME LEFT:  2.00D  GRAD.:     0.999 HEAT: -221.9436
 CYCLE:   101 TIME:   0.031 TIME LEFT:  2.00D  GRAD.:     1.644 HEAT: -221.9391
 CYCLE:   102 TIME:   0.023 TIME LEFT:  2.00D  GRAD.:     1.001 HEAT: -221.9434
 CYCLE:   103 TIME:   0.031 TIME LEFT:  2.00D  GRAD.:     1.656 HEAT: -221.9394
 CYCLE:   104 TIME:   0.023 TIME LEFT:  2.00D  GRAD.:     1.002 HEAT: -221.9436
 CYCLE:   105 TIME:   0.031 TIME LEFT:  2.00D  GRAD.:     1.649 HEAT: -221.9392


 HEAT OF FORMATION IS ESSENTIALLY STATIONARY

 -------------------------------------------------------------------------------
 AUX LARGE CHARGE=0 SINGLET  PM7 PRECISE
 dimer  kyseliny octovej



     GEOMETRY OPTIMISED USING EIGENVECTOR FOLLOWING (EF).     
     SCF FIELD WAS ACHIEVED                                   


                              PM7 CALCULATION
                                                       MOPAC v22.1.0 Windows
                                                       Sat Dec 23 21:30:23 2023




          FINAL HEAT OF FORMATION =       -221.93920 KCAL/MOL =    -928.59362 KJ/MOL


          COSMO AREA              =        157.88 SQUARE ANGSTROMS
          COSMO VOLUME            =        142.57 CUBIC ANGSTROMS

          GRADIENT NORM           =          1.64919          =       0.41230 PER ATOM
          IONIZATION POTENTIAL    =         11.309994 EV
          HOMO LUMO ENERGIES (EV) =        -11.310  0.812
          NO. OF FILLED LEVELS    =         24
          MOLECULAR WEIGHT        =        120.1048         POINT GROUP:  C2h 

          MOLECULAR DIMENSIONS (Angstroms)

            Atom       Atom       Distance
            H    13    H     3     8.01926
            H    14    H     5     3.45272
            H    15    H     4     3.03693


          SCF CALCULATIONS        =        143
 
          WALL-CLOCK TIME         =      2.719 SECONDS
          COMPUTATION TIME        =      4.953 SECONDS




   ATOM   CHEMICAL          X               Y               Z
  NUMBER   SYMBOL      (ANGSTROMS)     (ANGSTROMS)     (ANGSTROMS)
 
     1       C         -7.70587874  *   1.58318109  *  -0.11311054  *
     2       C         -6.27095173  *   1.94663098  *   0.02656644  *
     3       H         -8.22476661  *   2.26406792  *  -0.80667586  *
     4       H         -8.22422476  *   1.62404302  *   0.85945662  *
     5       H         -7.82299302  *   0.55335537  *  -0.48947782  *
     6       O         -5.71840405  *   2.88457847  *  -0.51962006  *
     7       O         -5.61521749  *   1.12198213  *   0.83948757  *
     8       H         -4.61894756  *   1.33425710  *   0.96372014  *
     9       C         -2.47424199  *   2.66745458  *   0.58374205  *
    10       C         -1.03976886  *   3.03212325  *   0.72507858  *
    11       O         -3.02643973  *   1.72858705  *   1.12868088  *
    12       O         -3.13157957  *   3.49626395  *  -0.22361653  *
    13       H         -0.51851042  *   2.34481974  *   1.41044804  *
    14       H         -0.92417922  *   4.05789356  *   1.11322282  *
    15       H         -0.52300879  *   3.00366271  *  -0.24861538  *
    16       H         -4.12572800  *   3.27869715  *  -0.35556821  *

                             CARTESIAN COORDINATES

   1    C       -7.705878744     1.583181093    -0.113110540
   2    C       -6.270951734     1.946630978     0.026566444
   3    H       -8.224766608     2.264067918    -0.806675861
   4    H       -8.224224761     1.624043021     0.859456616
   5    H       -7.822993023     0.553355370    -0.489477818
   6    O       -5.718404045     2.884578475    -0.519620056
   7    O       -5.615217493     1.121982131     0.839487573
   8    H       -4.618947558     1.334257104     0.963720136
   9    C       -2.474241995     2.667454577     0.583742047
  10    C       -1.039768861     3.032123249     0.725078577
  11    O       -3.026439725     1.728587049     1.128680878
  12    O       -3.131579570     3.496263955    -0.223616528
  13    H       -0.518510417     2.344819739     1.410448038
  14    H       -0.924179217     4.057893561     1.113222825
  15    H       -0.523008792     3.003662714    -0.248615376
  16    H       -4.125727997     3.278697146    -0.355568210


           Empirical Formula: C4 H8 O4  =    16 atoms



      MOLECULAR POINT GROUP   :   C2h 


                  EIGENVALUES  
 -31.69325 -31.25314 -29.90697 -29.66415 -27.04455 -26.70216 -21.10689 -20.67217
 -18.38826 -16.95728 -16.55076 -16.28977 -16.25195 -16.13902 -14.36948 -14.34117
 -13.89035 -13.79035 -13.76748 -13.05880 -12.18449 -12.13843 -11.61108 -11.30999
   0.81185   0.81479   1.91799   2.24750   3.15380   3.60978   4.12946   4.51535
   4.84099   4.84101   4.97180   5.17499   5.52721   6.02029   6.06972   6.40031


              NET ATOMIC CHARGES AND DIPOLE CONTRIBUTIONS

  ATOM NO.   TYPE          CHARGE      No. of ELECS.   s-Pop       p-Pop       
    1          C          -0.505686        4.5057     1.05984     3.44585
    2          C           0.708644        3.2914     1.10601     2.18535
    3          H           0.187120        0.8129     0.81288
    4          H           0.190189        0.8098     0.80981
    5          H           0.190100        0.8099     0.80990
    6          O          -0.610405        6.6104     1.87106     4.73934
    7          O          -0.567919        6.5679     1.83787     4.73005
    8          H           0.407951        0.5920     0.59205
    9          C           0.708686        3.2913     1.10601     2.18530
   10          C          -0.505671        4.5057     1.05984     3.44583
   11          O          -0.610374        6.6104     1.87106     4.73931
   12          O          -0.568034        6.5680     1.83783     4.73021
   13          H           0.187117        0.8129     0.81288
   14          H           0.190230        0.8098     0.80977
   15          H           0.190055        0.8099     0.80995
   16          H           0.407997        0.5920     0.59200
 DIPOLE           X         Y         Z       TOTAL
 POINT-CHG.     0.003    -0.008    -0.012     0.015
 HYBRID         0.000    -0.000    -0.001     0.001
 SUM            0.003    -0.009    -0.013     0.016


          ATOMIC ORBITAL ELECTRON POPULATIONS

     Atom    s        px        py        pz   
    1  C   1.05984   1.03961   1.19911   1.20712
    2  C   1.10601   0.83216   0.69595   0.65724
    3  H   0.81288
    4  H   0.80981
    5  H   0.80990
    6  O   1.87106   1.73719   1.42580   1.57635
    7  O   1.83787   1.46358   1.61130   1.65517
    8  H   0.59205
    9  C   1.10601   0.83211   0.69616   0.65704
   10  C   1.05984   1.03975   1.19910   1.20698
   11  O   1.87106   1.73735   1.42634   1.57562
   12  O   1.83783   1.46467   1.60725   1.65829
   13  H   0.81288
   14  H   0.80977
   15  H   0.80995
   16  H   0.59200
 *******************************************************************************
 **                                                                           **
 **                              MOPAC v22.1.0                                **
 **                                                                           **
 *******************************************************************************
 **          Digital Object Identifier (DOI): 10.5281/zenodo.6511958          **
 **    Visit the DOI location for information on how to cite this program.    **
 *******************************************************************************

                              PM7 CALCULATION RESULTS

 *******************************************************************************
 *  CALCULATION DONE:                                Sat Dec 23 21:30:33 2023  *
 *  PM7        - The PM7 Hamiltonian to be used
 *  OLDGEO     - PREVIOUS GEOMETRY TO BE USED
 *  PRECISE    - TIGHTER CRITERIA TO BE USED
 *  T=         - A TIME OF 172800.0 SECONDS REQUESTED
 *  DUMP=N     - RESTART FILE WRITTEN EVERY 7200.0 SECONDS REQUESTED
 *  THERMO     - THERMODYNAMIC QUANTITIES TO BE CALCULATED
 *******************************************************************************
OLDGEO PRECISE PM7 THERMO
 dimer kyseliny octovej

   ATOM   CHEMICAL          X               Y               Z
  NUMBER   SYMBOL      (ANGSTROMS)     (ANGSTROMS)     (ANGSTROMS)
 
     1       C         -7.70587874  *   1.58318109  *  -0.11311054  *
     2       C         -6.27095173  *   1.94663098  *   0.02656644  *
     3       H         -8.22476661  *   2.26406792  *  -0.80667586  *
     4       H         -8.22422476  *   1.62404302  *   0.85945662  *
     5       H         -7.82299302  *   0.55335537  *  -0.48947782  *
     6       O         -5.71840405  *   2.88457847  *  -0.51962006  *
     7       O         -5.61521749  *   1.12198213  *   0.83948757  *
     8       H         -4.61894756  *   1.33425710  *   0.96372014  *
     9       C         -2.47424199  *   2.66745458  *   0.58374205  *
    10       C         -1.03976886  *   3.03212325  *   0.72507858  *
    11       O         -3.02643973  *   1.72858705  *   1.12868088  *
    12       O         -3.13157957  *   3.49626395  *  -0.22361653  *
    13       H         -0.51851042  *   2.34481974  *   1.41044804  *
    14       H         -0.92417922  *   4.05789356  *   1.11322282  *
    15       H         -0.52300879  *   3.00366271  *  -0.24861538  *
    16       H         -4.12572800  *   3.27869715  *  -0.35556821  *
 


          CARTESIAN COORDINATES 

    NO.       ATOM           X           Y           Z

     1         C         -7.7059      1.5832     -0.1131
     2         C         -6.2710      1.9466      0.0266
     3         H         -8.2248      2.2641     -0.8067
     4         H         -8.2242      1.6240      0.8595
     5         H         -7.8230      0.5534     -0.4895
     6         O         -5.7184      2.8846     -0.5196
     7         O         -5.6152      1.1220      0.8395
     8         H         -4.6189      1.3343      0.9637
     9         C         -2.4742      2.6675      0.5837
    10         C         -1.0398      3.0321      0.7251
    11         O         -3.0264      1.7286      1.1287
    12         O         -3.1316      3.4963     -0.2236
    13         H         -0.5185      2.3448      1.4104
    14         H         -0.9242      4.0579      1.1132
    15         H         -0.5230      3.0037     -0.2486
    16         H         -4.1257      3.2787     -0.3556

 General Reference for PM7:
 "Optimization of Parameters for Semiempirical Methods VI: More Modifications to the 
 NDDO Approximations and Re-optimization of Parameters", J. J. P. Stewart, J. Mol. Mod., 1:32, 19 (2013)
 https://link.springer.com/article/10.1007/s00894-012-1667-x

           Empirical Formula: C4 H8 O4  =    16 atoms



      MOLECULAR POINT GROUP   :   C2h 


      RHF CALCULATION, NO. OF DOUBLY OCCUPIED LEVELS = 24



          HEAT OF FORMATION =    -221.939201 KCALS/MOLE


          CARTESIAN COORDINATE DERIVATIVES

   NUMBER  ATOM         X            Y            Z

     1       C      0.014345    -0.014943     0.025218
     2       C     -0.010740     0.024928    -0.568144
     3       H     -0.005838     0.012011     0.014076
     4       H     -0.028997    -0.003838     0.018820
     5       H      0.029794     0.003340     0.012605
     6       O     -0.003028     0.018245     0.215061
     7       O     -0.013810    -0.074231     0.728023
     8       H     -0.003570     0.027747    -0.418628
     9       C      0.032502    -0.002385    -0.693520
    10       C      0.002431    -0.008414     0.013463
    11       O      0.007943    -0.024325     0.253912
    12       O      0.003577    -0.017873     0.877266
    13       H      0.001843     0.001029     0.012359
    14       H      0.030236     0.006653     0.029349
    15       H     -0.028339    -0.005786     0.022625
    16       H     -0.020428     0.058423    -0.541854
 


          GRADIENT NORM =   1.64429


                              **** WARNING ****

           GRADIENT IS VERY LARGE FOR A THERMO CALCULATION
           RESULTS ARE LIKELY TO BE INACCURATE IF THERE ARE
           ANY LOW-LYING VIBRATIONS (LESS THAN ABOUT 400CM-1)
           GRADIENT NORM SHOULD BE LESS THAN ABOUT 1.0 FOR THERMO
           TO GIVE ACCURATE RESULTS

          MOLECULAR WEIGHT =  120.10



          ROTATIONAL CONSTANTS IN CM(-1)

          A =    0.19072872   B =    0.02895791   C =    0.02537944



           PRINCIPAL MOMENTS OF INERTIA IN UNITS OF 10**(-40)*GRAM-CM**2

          A =      146.7674   B =      966.6705   C =     1102.9696


          ORIENTATION OF MOLECULE IN FORCE CALCULATION

    NO.       ATOM         X         Y         Z

     1          C      -3.4332    0.1513    0.0002
     2          C      -1.9464    0.1513    0.0002
     3          H      -3.8327    1.1780    0.0002
     4          H      -3.8321   -0.3718    0.8853
     5          H      -3.8333   -0.3739   -0.8830
     6          O      -1.2351    1.1397    0.0244
     7          O      -1.4387   -1.0786   -0.0267
     8          H      -0.4137   -1.1264   -0.0301
     9          C       1.9464   -0.1512   -0.0022
    10          C       3.4332   -0.1513   -0.0001
    11          O       1.2351   -1.1396   -0.0280
    12          O       1.4387    1.0784    0.0318
    13          H       3.8327   -1.1780   -0.0107
    14          H       3.8320    0.3635    0.8900
    15          H       3.8335    0.3821   -0.8782
    16          H       0.4137    1.1269    0.0257


    FIRST DERIVATIVES WILL BE USED IN THE CALCULATION OF SECOND DERIVATIVES

          ESTIMATED TIME TO COMPLETE CALCULATION =        4.50 SECONDS

    FOR POINT-GROUP C2h  THERE ARE   4 UNIQUE SYMMETRY FUNCTIONS.

 STEP:   1 TIME =     0.09 SECS, INTEGRAL =      0.09 TIME LEFT: 172799.89
 STEP:   2 TIME =     0.06 SECS, INTEGRAL =      0.15 TIME LEFT: 172799.83
 STEP:   3 TIME =     0.09 SECS, INTEGRAL =      0.23 TIME LEFT: 172799.74
 STEP:   4 TIME =     0.09 SECS, INTEGRAL =      0.33 TIME LEFT: 172799.65
 STEP:   5 TIME =     0.09 SECS, INTEGRAL =      0.41 TIME LEFT: 172799.56
 STEP:   6 TIME =     0.09 SECS, INTEGRAL =      0.50 TIME LEFT: 172799.48
 STEP:   7 TIME =     0.09 SECS, INTEGRAL =      0.59 TIME LEFT: 172799.39
 STEP:   8 TIME =     0.09 SECS, INTEGRAL =      0.67 TIME LEFT: 172799.30
 STEP:   9 TIME =     0.09 SECS, INTEGRAL =      0.76 TIME LEFT: 172799.22
 STEP:  10 TIME =     0.09 SECS, INTEGRAL =      0.84 TIME LEFT: 172799.13
 STEP:  11 TIME =     0.08 SECS, INTEGRAL =      0.92 TIME LEFT: 172799.05
 STEP:  12 TIME =     0.09 SECS, INTEGRAL =      1.01 TIME LEFT: 172798.97
 STEP:  13                       INTEGRAL =      1.01 TIME LEFT: 172798.97
 STEP:  14                       INTEGRAL =      1.01 TIME LEFT: 172798.97
 STEP:  15                       INTEGRAL =      1.01 TIME LEFT: 172798.97
 STEP:  16 TIME =     0.07 SECS, INTEGRAL =      1.08 TIME LEFT: 172798.90
 STEP:  17 TIME =     0.08 SECS, INTEGRAL =      1.16 TIME LEFT: 172798.82
 STEP:  18 TIME =     0.08 SECS, INTEGRAL =      1.23 TIME LEFT: 172798.74
 STEP:  19 TIME =     0.09 SECS, INTEGRAL =      1.33 TIME LEFT: 172798.65
 STEP:  20 TIME =     0.16 SECS, INTEGRAL =      1.48 TIME LEFT: 172798.49
 STEP:  21 TIME =     0.17 SECS, INTEGRAL =      1.66 TIME LEFT: 172798.32
 STEP:  22 TIME =     0.16 SECS, INTEGRAL =      1.82 TIME LEFT: 172798.16
 STEP:  23 TIME =     0.18 SECS, INTEGRAL =      2.00 TIME LEFT: 172797.98
 STEP:  24 TIME =     0.16 SECS, INTEGRAL =      2.16 TIME LEFT: 172797.81
 STEP:  25                       INTEGRAL =      2.16 TIME LEFT: 172797.81
 STEP:  26                       INTEGRAL =      2.16 TIME LEFT: 172797.81
 STEP:  27                       INTEGRAL =      2.16 TIME LEFT: 172797.81
 STEP:  28                       INTEGRAL =      2.16 TIME LEFT: 172797.81
 STEP:  29                       INTEGRAL =      2.16 TIME LEFT: 172797.81
 STEP:  30                       INTEGRAL =      2.16 TIME LEFT: 172797.81
 STEP:  31                       INTEGRAL =      2.16 TIME LEFT: 172797.81
 STEP:  32                       INTEGRAL =      2.16 TIME LEFT: 172797.81
 STEP:  33                       INTEGRAL =      2.16 TIME LEFT: 172797.81
 STEP:  34                       INTEGRAL =      2.16 TIME LEFT: 172797.81
 STEP:  35                       INTEGRAL =      2.16 TIME LEFT: 172797.81
 STEP:  36                       INTEGRAL =      2.16 TIME LEFT: 172797.81
 STEP:  37                       INTEGRAL =      2.16 TIME LEFT: 172797.81
 STEP:  38                       INTEGRAL =      2.16 TIME LEFT: 172797.81
 STEP:  39                       INTEGRAL =      2.16 TIME LEFT: 172797.81
 STEP:  40                       INTEGRAL =      2.16 TIME LEFT: 172797.81
 STEP:  41                       INTEGRAL =      2.16 TIME LEFT: 172797.81
 STEP:  42                       INTEGRAL =      2.16 TIME LEFT: 172797.81
 STEP:  43                       INTEGRAL =      2.16 TIME LEFT: 172797.81
 STEP:  44                       INTEGRAL =      2.16 TIME LEFT: 172797.81
 STEP:  45                       INTEGRAL =      2.16 TIME LEFT: 172797.81
 STEP:  46                       INTEGRAL =      2.16 TIME LEFT: 172797.81
 STEP:  47                       INTEGRAL =      2.16 TIME LEFT: 172797.81
 STEP:  48                       INTEGRAL =      2.16 TIME LEFT: 172797.81

(To convert to Hartree/Bohr^2, multiply by (10^(-21) x N x a0^2)/(4.184 x 627.51) =  0.0642)


           FORCE MATRIX IN MILLIDYNES/ANGSTROM


                  C  1       C  2       H  3       H  4       H  5       O  6
 ------------------------------------------------------------------------------
     C    1  11.706179
     C    2   3.762448  18.798172
     H    3   3.397005   0.781993   4.187386
     H    4   3.371320   0.788664   0.443870   4.163270
     H    5   3.373505   0.787145   0.442909   0.451640   4.163270
     O    6   1.143751  11.156393   0.052642   0.061095   0.060907  14.583415
     O    7   1.117473   5.825173   0.063773   0.049275   0.049166   1.892751
     H    8   0.149029   1.406512   0.022370   0.022776   0.022820   0.335334
     C    9   0.083759   0.531585   0.011763   0.010876   0.010876   0.449592
     C   10   0.021910   0.083515   0.004607   0.004734   0.004734   0.079868
     O   11   0.079868   0.446824   0.009164   0.012873   0.012873   0.249333
     O   12   0.078383   0.442870   0.013129   0.009874   0.009874   3.437480
     H   13   0.004578   0.011819   0.000776   0.001043   0.001043   0.009156
     H   14   0.004728   0.011089   0.001042   0.001096   0.000935   0.013014
     H   15   0.004713   0.010962   0.001046   0.000935   0.001096   0.012867
     H   16   0.113894   0.643927   0.021420   0.014628   0.014628   0.519467


                  O  7       H  8       C  9       C 10       O 11       O 12
 ------------------------------------------------------------------------------
     O    7  11.642591
     H    8   3.036857   3.585716
     C    9   0.444906   0.644219  18.798172
     C   10   0.078493   0.114102   3.762448  11.706179
     O   11   3.508897   0.519504  11.156393   1.143751  14.583415
     O   12   0.270601   0.302214   5.825173   1.117473   1.892751  11.642591
     H   13   0.013128   0.021385   0.781993   3.397005   0.052642   0.063773
     H   14   0.009883   0.014497   0.788664   3.371320   0.061095   0.049275
     H   15   0.009864   0.014537   0.787145   3.373505   0.060907   0.049166
     H   16   0.273991   0.279502   1.406512   0.149029   0.335334   3.036857


                  H 13       H 14       H 15       H 16
 ------------------------------------------------------
     H   13   4.187386
     H   14   0.443870   4.163270
     H   15   0.442909   0.451640   4.163270
     H   16   0.022370   0.022776   0.022820   3.585716


          HEAT OF FORMATION =    -221.939201 KCALS/MOLE

          ZERO POINT ENERGY      74.066 KCAL/MOL

         NOTE: SYSTEM IS NOT A GROUND STATE, THEREFORE ZERO POINT
         ENERGY IS NOT MEANINGFULL. ZERO POINT ENERGY PRINTED
         DOES NOT INCLUDE THE  1 IMAGINARY FREQUENCIES


           NORMAL COORDINATE ANALYSIS (Total motion = 1 Angstrom)


   Root No.       1         2         3         4         5         6         7         8

                 1 Au      1 Bg      2 Au      1 Ag      2 Bg      3 Au      1 Bu      2 Ag  

                 -15.0     109.8     140.8     161.1     256.9     267.5     288.0     395.4
  
           1   -0.0001    0.0001    0.0000    0.0034   -0.0000    0.0000    0.0021    0.0725
           2   -0.0018    0.0014    0.0008    0.0341   -0.0001    0.0001    0.0686    0.0085
           3    0.0730   -0.0540   -0.0330    0.0009    0.0019   -0.0059    0.0017    0.0003
           4    0.0000   -0.0000   -0.0000    0.0029    0.0000   -0.0000    0.0003    0.0646
           5    0.0001   -0.0007   -0.0000   -0.0397    0.0001   -0.0001   -0.0207   -0.0171
           6   -0.0032    0.0284    0.0019   -0.0010   -0.0029    0.0032   -0.0005   -0.0003
           7   -0.0001    0.0001    0.0001    0.0545    0.0002   -0.0002    0.0755    0.1008
           8   -0.0030    0.0024    0.0014    0.0540    0.0037   -0.0038    0.0994    0.0213
           9    0.1184   -0.0939   -0.0572    0.0014   -0.1474    0.1517    0.0026    0.0007
          10    0.0441   -0.0504   -0.0266   -0.0213    0.0148   -0.0178   -0.0335    0.0589
          11   -0.0255    0.0171    0.0089    0.0517    0.1265   -0.1338    0.0961    0.0223
          12    0.0791   -0.0682   -0.0412   -0.0000    0.0879   -0.0979    0.0007    0.0018
          13   -0.0443    0.0506    0.0267   -0.0213   -0.0150    0.0181   -0.0335    0.0589
          14    0.0216   -0.0136   -0.0069    0.0516   -0.1307    0.1385    0.0960    0.0224
          15    0.0801   -0.0688   -0.0415    0.0026    0.0815   -0.0910    0.0040   -0.0005
          16    0.0001   -0.0001    0.0001    0.0433   -0.0000   -0.0000    0.0071    0.0069
          17    0.0013   -0.0015    0.0024   -0.0695   -0.0003   -0.0001   -0.0268    0.0241
          18   -0.0514    0.0626   -0.0973   -0.0016    0.0111    0.0025   -0.0006    0.0006
          19    0.0000   -0.0001   -0.0001   -0.0466    0.0000   -0.0000   -0.0089    0.0327
          20    0.0004   -0.0014   -0.0031   -0.0618    0.0004   -0.0000   -0.0260   -0.0217
          21   -0.0153    0.0563    0.1240   -0.0016   -0.0147    0.0017   -0.0007   -0.0005
          22    0.0001   -0.0000   -0.0001   -0.0452    0.0000   -0.0000   -0.0083    0.0408
          23    0.0013   -0.0008   -0.0022   -0.0637    0.0003   -0.0000   -0.0258   -0.0530
          24   -0.0505    0.0318    0.0867   -0.0017   -0.0125    0.0015   -0.0007   -0.0013
          25    0.0000    0.0000   -0.0000   -0.0029   -0.0000   -0.0000    0.0003   -0.0646
          26    0.0001    0.0007   -0.0000    0.0397   -0.0001   -0.0001   -0.0207    0.0171
          27   -0.0032   -0.0284    0.0019    0.0010    0.0029    0.0032   -0.0005    0.0003
          28   -0.0001   -0.0001    0.0000   -0.0034    0.0000    0.0000    0.0021   -0.0725
          29   -0.0018   -0.0014    0.0008   -0.0341    0.0001    0.0001    0.0686   -0.0085
          30    0.0730    0.0540   -0.0330   -0.0009   -0.0019   -0.0059    0.0017   -0.0003
          31    0.0001    0.0001    0.0001   -0.0433    0.0000   -0.0000    0.0071   -0.0069
          32    0.0013    0.0015    0.0024    0.0695    0.0003   -0.0001   -0.0268   -0.0241
          33   -0.0514   -0.0626   -0.0973    0.0016   -0.0111    0.0025   -0.0007   -0.0006
          34    0.0000    0.0001   -0.0001    0.0466   -0.0000   -0.0000   -0.0089   -0.0327
          35    0.0004    0.0014   -0.0031    0.0618   -0.0004   -0.0000   -0.0260    0.0217
          36   -0.0153   -0.0563    0.1240    0.0016    0.0147    0.0017   -0.0007    0.0005
          37   -0.0001   -0.0001    0.0001   -0.0545   -0.0002   -0.0002    0.0755   -0.1008
          38   -0.0029   -0.0024    0.0014   -0.0540   -0.0037   -0.0038    0.0994   -0.0213
          39    0.1184    0.0939   -0.0572   -0.0014    0.1474    0.1517    0.0026   -0.0007
          40   -0.0443   -0.0506    0.0267    0.0213    0.0150    0.0181   -0.0335   -0.0589
          41    0.0216    0.0136   -0.0069   -0.0516    0.1308    0.1385    0.0960   -0.0224
          42    0.0801    0.0688   -0.0415   -0.0026   -0.0815   -0.0910    0.0040    0.0005
          43    0.0441    0.0504   -0.0266    0.0213   -0.0148   -0.0178   -0.0335   -0.0589
          44   -0.0255   -0.0171    0.0089   -0.0517   -0.1265   -0.1338    0.0961   -0.0223
          45    0.0791    0.0682   -0.0412    0.0000   -0.0879   -0.0978    0.0007   -0.0018
          46    0.0001    0.0000   -0.0001    0.0452   -0.0000   -0.0000   -0.0083   -0.0408
          47    0.0013    0.0008   -0.0022    0.0637   -0.0003   -0.0000   -0.0258    0.0530
          48   -0.0505   -0.0318    0.0867    0.0017    0.0125    0.0015   -0.0006    0.0013


   Root No.       9        10        11        12        13        14        15        16

                 3 Ag      3 Bg      4 Au      2 Bu      4 Ag      3 Bu      5 Au      4 Bu  

                 421.4     555.6     557.6     575.1     761.0     810.2     912.7    1020.8
  
           1   -0.0174   -0.0000    0.0000    0.0532    0.0183    0.0035   -0.0000    0.0728
           2    0.0406    0.0000    0.0000   -0.0031   -0.0040    0.0079   -0.0003   -0.0231
           3    0.0010    0.0004   -0.0001   -0.0000   -0.0001    0.0002    0.0112   -0.0005
           4   -0.0173   -0.0001   -0.0001    0.0417   -0.0036   -0.0017   -0.0000   -0.0257
           5   -0.0310   -0.0020   -0.0019   -0.0022   -0.0082    0.0360   -0.0003   -0.0100
           6   -0.0008    0.0832    0.0777    0.0000   -0.0002    0.0009    0.0113   -0.0003
           7    0.0570    0.0001    0.0001    0.0570    0.0072   -0.1010    0.0000    0.1816
           8    0.0737    0.0018    0.0017   -0.0011   -0.0080   -0.0406    0.0005    0.0357
           9    0.0020   -0.0709   -0.0683   -0.0001   -0.0002   -0.0011   -0.0180    0.0012
          10   -0.0537   -0.1039   -0.0983    0.0533    0.0211    0.0516   -0.0387    0.0191
          11    0.0720    0.0120    0.0124   -0.0007   -0.0096   -0.0410   -0.0001    0.0202
          12    0.0010   -0.0474   -0.0447    0.0016    0.0013   -0.0012   -0.0117    0.0046
          13   -0.0538    0.1040    0.0984    0.0534    0.0211    0.0516    0.0387    0.0192
          14    0.0720   -0.0095   -0.0101   -0.0008   -0.0095   -0.0410    0.0007    0.0205
          15    0.0025   -0.0477   -0.0450   -0.0014   -0.0017   -0.0006   -0.0116   -0.0036
          16   -0.0431    0.0001    0.0000   -0.0352    0.0782    0.0574    0.0000   -0.0172
          17   -0.0100    0.0007    0.0005    0.0535   -0.0770   -0.0198    0.0003   -0.0413
          18   -0.0003   -0.0299   -0.0218    0.0012   -0.0018   -0.0004   -0.0117   -0.0010
          19    0.0393    0.0000    0.0000   -0.0430    0.0669   -0.0545    0.0000   -0.0302
          20   -0.0058    0.0006    0.0005   -0.0429    0.0758   -0.0009    0.0006    0.0593
          21   -0.0001   -0.0226   -0.0205   -0.0010    0.0020   -0.0001   -0.0242    0.0014
          22    0.0489    0.0001    0.0001   -0.0535    0.1090   -0.0694   -0.0004   -0.0297
          23    0.0406    0.0016    0.0023   -0.1034    0.1726   -0.0710   -0.0085    0.0312
          24    0.0011   -0.0632   -0.0941   -0.0026    0.0044   -0.0019    0.3426    0.0006
          25    0.0173    0.0001   -0.0001    0.0417    0.0036   -0.0017   -0.0000   -0.0257
          26    0.0310    0.0021   -0.0019   -0.0022    0.0082    0.0360   -0.0003   -0.0100
          27    0.0008   -0.0832    0.0777   -0.0000    0.0002    0.0009    0.0113   -0.0003
          28    0.0174   -0.0000   -0.0000    0.0532   -0.0183    0.0035   -0.0000    0.0728
          29   -0.0406   -0.0000   -0.0000   -0.0031    0.0040    0.0079   -0.0003   -0.0231
          30   -0.0010   -0.0004   -0.0001   -0.0000    0.0001    0.0002    0.0112   -0.0005
          31    0.0431   -0.0000    0.0000   -0.0352   -0.0782    0.0574    0.0000   -0.0172
          32    0.0100   -0.0008    0.0005    0.0535    0.0770   -0.0198    0.0003   -0.0412
          33    0.0003    0.0299   -0.0218    0.0014    0.0018   -0.0004   -0.0117   -0.0011
          34   -0.0393   -0.0000    0.0000   -0.0430   -0.0669   -0.0545    0.0000   -0.0302
          35    0.0058   -0.0006    0.0005   -0.0429   -0.0758   -0.0009    0.0006    0.0593
          36    0.0001    0.0226   -0.0205   -0.0012   -0.0020   -0.0001   -0.0242    0.0015
          37   -0.0570   -0.0001    0.0001    0.0570   -0.0072   -0.1010    0.0000    0.1816
          38   -0.0737   -0.0018    0.0017   -0.0011    0.0080   -0.0406    0.0004    0.0357
          39   -0.0020    0.0709   -0.0683    0.0001    0.0002   -0.0012   -0.0180    0.0010
          40    0.0538   -0.1040    0.0984    0.0533   -0.0211    0.0516    0.0387    0.0191
          41   -0.0720    0.0095   -0.0101   -0.0006    0.0095   -0.0410    0.0007    0.0204
          42   -0.0025    0.0477   -0.0450   -0.0015    0.0017   -0.0007   -0.0116   -0.0036
          43    0.0537    0.1039   -0.0983    0.0534   -0.0211    0.0516   -0.0387    0.0192
          44   -0.0720   -0.0120    0.0124   -0.0009    0.0096   -0.0410   -0.0001    0.0203
          45   -0.0010    0.0474   -0.0447    0.0015   -0.0013   -0.0013   -0.0117    0.0047
          46   -0.0489   -0.0001    0.0001   -0.0535   -0.1090   -0.0694   -0.0004   -0.0297
          47   -0.0406   -0.0016    0.0023   -0.1034   -0.1726   -0.0710   -0.0085    0.0312
          48   -0.0011    0.0632   -0.0941   -0.0027   -0.0044   -0.0018    0.3426    0.0008


   Root No.      17        18        19        20        21        22        23        24

                 5 Ag      5 Bu      4 Bg      6 Au      6 Ag      5 Bg      6 Bu      7 Ag  

                1033.7    1058.5    1067.9    1080.5    1083.1    1157.0    1267.1    1269.0
  
           1   -0.0019   -0.0226    0.0000   -0.0000    0.0749   -0.0000   -0.0139   -0.0124
           2   -0.0367   -0.0300    0.0008   -0.0009    0.0021   -0.0003   -0.0112   -0.0147
           3   -0.0009   -0.0008   -0.0344    0.0379    0.0001    0.0119   -0.0003   -0.0004
           4    0.0044    0.0140   -0.0000    0.0000   -0.0443    0.0000    0.0120    0.0092
           5   -0.0057    0.0051   -0.0008    0.0010   -0.0010    0.0006   -0.0086   -0.0086
           6   -0.0001    0.0002    0.0302   -0.0395   -0.0001   -0.0250   -0.0002   -0.0002
           7    0.1870    0.1322   -0.0002    0.0001    0.0589   -0.0000   -0.0460   -0.0438
           8    0.0531    0.0417   -0.0016    0.0017    0.0036    0.0005   -0.0213   -0.0229
           9    0.0016    0.0012    0.0605   -0.0660    0.0002   -0.0201   -0.0005   -0.0007
          10   -0.0933   -0.0985    0.1366   -0.1494    0.0797   -0.0407    0.0595    0.0639
          11    0.0429    0.0346   -0.0035    0.0040   -0.0071   -0.0001    0.0989    0.1111
          12   -0.0047   -0.0075    0.0448   -0.0487    0.0084   -0.0134    0.0957    0.1065
          13   -0.0934   -0.0986   -0.1366    0.1496    0.0796    0.0408    0.0598    0.0641
          14    0.0426    0.0342    0.0011   -0.0016   -0.0067    0.0008    0.1035    0.1163
          15    0.0068    0.0091    0.0446   -0.0485   -0.0086   -0.0132   -0.0906   -0.1008
          16    0.0038    0.0215   -0.0000   -0.0000   -0.0441    0.0000   -0.0048   -0.0042
          17    0.0047    0.0119    0.0001   -0.0002   -0.0272   -0.0000   -0.0044   -0.0050
          18    0.0001    0.0003   -0.0055    0.0067   -0.0008    0.0006   -0.0001   -0.0002
          19   -0.0127   -0.0097    0.0000   -0.0000   -0.0336   -0.0000    0.0024   -0.0021
          20    0.0185    0.0038   -0.0001   -0.0002    0.0261   -0.0005    0.0139    0.0121
          21    0.0005    0.0001    0.0015    0.0065    0.0006    0.0206    0.0003    0.0003
          22   -0.0144   -0.0200    0.0001    0.0000   -0.0449    0.0004   -0.0115   -0.0099
          23   -0.0234   -0.0612    0.0020    0.0007    0.0490    0.0084   -0.0953   -0.0657
          24   -0.0006   -0.0016   -0.0803   -0.0288    0.0012   -0.3360   -0.0024   -0.0016
          25   -0.0044    0.0140    0.0000    0.0001    0.0443   -0.0000    0.0120   -0.0092
          26    0.0057    0.0051    0.0008    0.0010    0.0010   -0.0006   -0.0086    0.0086
          27    0.0001    0.0001   -0.0302   -0.0395    0.0001    0.0250   -0.0002    0.0002
          28    0.0019   -0.0226   -0.0000   -0.0001   -0.0749    0.0000   -0.0139    0.0124
          29    0.0367   -0.0300   -0.0008   -0.0010   -0.0021    0.0003   -0.0112    0.0147
          30    0.0009   -0.0008    0.0344    0.0379   -0.0001   -0.0119   -0.0003    0.0004
          31   -0.0038    0.0215   -0.0000   -0.0000    0.0441   -0.0000   -0.0048    0.0042
          32   -0.0047    0.0119   -0.0001   -0.0002    0.0272    0.0000   -0.0044    0.0050
          33   -0.0001    0.0003    0.0055    0.0067    0.0008   -0.0006   -0.0001    0.0002
          34    0.0127   -0.0097   -0.0000    0.0000    0.0336    0.0000    0.0024    0.0021
          35   -0.0185    0.0038    0.0001   -0.0002   -0.0261    0.0005    0.0139   -0.0121
          36   -0.0005    0.0001   -0.0015    0.0065   -0.0006   -0.0206    0.0004   -0.0003
          37   -0.1870    0.1322    0.0001    0.0001   -0.0589   -0.0000   -0.0460    0.0438
          38   -0.0531    0.0417    0.0016    0.0016   -0.0036   -0.0005   -0.0213    0.0229
          39   -0.0016    0.0012   -0.0605   -0.0660   -0.0001    0.0201   -0.0006    0.0007
          40    0.0934   -0.0986    0.1366    0.1496   -0.0797   -0.0408    0.0597   -0.0641
          41   -0.0426    0.0342   -0.0011   -0.0016    0.0067   -0.0008    0.1035   -0.1163
          42   -0.0068    0.0090   -0.0446   -0.0485    0.0086    0.0132   -0.0906    0.1008
          43    0.0933   -0.0986   -0.1365   -0.1495   -0.0797    0.0408    0.0595   -0.0639
          44   -0.0429    0.0346    0.0034    0.0040    0.0071    0.0001    0.0989   -0.1111
          45    0.0047   -0.0076   -0.0448   -0.0487   -0.0084    0.0134    0.0958   -0.1065
          46    0.0144   -0.0200   -0.0001    0.0000    0.0449   -0.0004   -0.0115    0.0099
          47    0.0234   -0.0612   -0.0020    0.0007   -0.0490   -0.0084   -0.0953    0.0657
          48    0.0006   -0.0015    0.0803   -0.0288   -0.0012    0.3360   -0.0024    0.0016


   Root No.      25        26        27        28        29        30        31        32

                 6 Bg      7 Au      7 Bu      8 Ag      8 Bu      9 Ag     10 Ag      9 Bu  

                1282.2    1282.3    1288.7    1297.0    1381.2    1384.6    1446.2    1453.4
  
           1    0.0000    0.0000    0.0073    0.0113   -0.0329    0.0306    0.0101   -0.0138
           2    0.0005    0.0005   -0.0199   -0.0187    0.0044   -0.0036   -0.0090    0.0072
           3   -0.0182   -0.0181   -0.0005   -0.0004    0.0001   -0.0001   -0.0002    0.0002
           4    0.0000    0.0000   -0.0157   -0.0218    0.0073    0.0003   -0.0434    0.0683
           5    0.0001    0.0000    0.0123    0.0191   -0.0030   -0.0011    0.0734   -0.0504
           6   -0.0019   -0.0017    0.0003    0.0005   -0.0001   -0.0000    0.0018   -0.0012
           7   -0.0003   -0.0002    0.0106    0.0099    0.1324   -0.1397    0.0670   -0.0861
           8   -0.0050   -0.0050   -0.0079   -0.0071    0.0646   -0.0681    0.0295   -0.0390
           9    0.2032    0.2028   -0.0000   -0.0001    0.0017   -0.0018    0.0008   -0.0010
          10   -0.0752   -0.0746    0.0109   -0.0044    0.1123   -0.1159    0.0032   -0.0377
          11    0.1123    0.1125    0.0809    0.0721   -0.0632    0.0607    0.0147   -0.0022
          12    0.0226    0.0231    0.0611    0.0473    0.0247   -0.0287    0.0133   -0.0262
          13    0.0751    0.0745    0.0112   -0.0042    0.1124   -0.1159    0.0032   -0.0378
          14   -0.1134   -0.1135    0.0835    0.0743   -0.0619    0.0594    0.0153   -0.0034
          15    0.0172    0.0177   -0.0569   -0.0437   -0.0275    0.0313   -0.0125    0.0260
          16   -0.0000    0.0000    0.0127    0.0125    0.0011   -0.0011    0.0051    0.0008
          17    0.0000    0.0000    0.0076    0.0146   -0.0001   -0.0021   -0.0190   -0.0026
          18    0.0001   -0.0005    0.0002    0.0004   -0.0000    0.0000   -0.0005   -0.0000
          19   -0.0000   -0.0000   -0.0099    0.0014   -0.0049    0.0011    0.0431   -0.0328
          20    0.0000    0.0000   -0.0244   -0.0330    0.0002    0.0038   -0.0244    0.0274
          21   -0.0004   -0.0002   -0.0006   -0.0008    0.0000   -0.0000   -0.0005    0.0006
          22   -0.0000   -0.0000    0.0231    0.0284    0.0089   -0.0071   -0.0704    0.0204
          23   -0.0001   -0.0001    0.1995    0.2101    0.0422   -0.0375   -0.2070    0.1662
          24   -0.0022    0.0027    0.0050    0.0053    0.0011   -0.0010   -0.0052    0.0041
          25    0.0000   -0.0000   -0.0157    0.0218    0.0073   -0.0003    0.0434    0.0683
          26   -0.0001    0.0000    0.0123   -0.0191   -0.0030    0.0011   -0.0734   -0.0504
          27    0.0019   -0.0017    0.0003   -0.0005   -0.0001    0.0000   -0.0018   -0.0012
          28   -0.0000    0.0000    0.0073   -0.0113   -0.0329   -0.0306   -0.0101   -0.0138
          29   -0.0005    0.0004   -0.0199    0.0187    0.0044    0.0036    0.0090    0.0072
          30    0.0182   -0.0181   -0.0005    0.0004    0.0001    0.0001    0.0002    0.0001
          31   -0.0000   -0.0000    0.0127   -0.0125    0.0011    0.0011   -0.0051    0.0008
          32   -0.0000    0.0000    0.0076   -0.0146   -0.0001    0.0021    0.0190   -0.0026
          33   -0.0001   -0.0005    0.0002   -0.0004    0.0000   -0.0000    0.0005   -0.0001
          34    0.0000    0.0000   -0.0099   -0.0014   -0.0049   -0.0011   -0.0431   -0.0328
          35   -0.0000   -0.0000   -0.0244    0.0330    0.0002   -0.0038    0.0244    0.0274
          36    0.0004   -0.0002   -0.0007    0.0008   -0.0000    0.0000    0.0005    0.0007
          37    0.0003   -0.0002    0.0106   -0.0099    0.1323    0.1398   -0.0670   -0.0861
          38    0.0050   -0.0051   -0.0079    0.0071    0.0646    0.0681   -0.0295   -0.0390
          39   -0.2030    0.2030   -0.0003    0.0001    0.0018    0.0018   -0.0008   -0.0011
          40   -0.0751    0.0746    0.0110    0.0042    0.1123    0.1160   -0.0032   -0.0378
          41    0.1131   -0.1136    0.0838   -0.0744   -0.0618   -0.0594   -0.0153   -0.0035
          42   -0.0171    0.0177   -0.0569    0.0437   -0.0275   -0.0313    0.0125    0.0259
          43    0.0751   -0.0747    0.0110    0.0043    0.1123    0.1159   -0.0032   -0.0377
          44   -0.1124    0.1126    0.0806   -0.0721   -0.0632   -0.0607   -0.0147   -0.0021
          45   -0.0227    0.0231    0.0610   -0.0473    0.0246    0.0287   -0.0133   -0.0262
          46   -0.0000    0.0000    0.0231   -0.0284    0.0088    0.0071    0.0704    0.0204
          47   -0.0002   -0.0001    0.1995   -0.2101    0.0422    0.0376    0.2070    0.1662
          48    0.0022    0.0026    0.0049   -0.0053    0.0010    0.0010    0.0052    0.0042


   Root No.      33        34        35        36        37        38        39        40

                11 Ag     10 Bu     12 Ag     11 Bu      7 Bg      8 Au     13 Ag     12 Bu  

                1783.2    1842.3    2411.2    2534.9    2651.2    2651.8    2664.8    2665.2
  
           1    0.0180   -0.0143   -0.0004    0.0013    0.0000    0.0000   -0.0003   -0.0003
           2    0.0046   -0.0102    0.0032   -0.0006    0.0007    0.0007   -0.0242   -0.0242
           3    0.0001   -0.0003    0.0001    0.0000   -0.0270   -0.0271   -0.0006   -0.0006
           4   -0.1002    0.0937   -0.0010   -0.0084    0.0000    0.0000   -0.0004   -0.0004
           5   -0.0787    0.1343   -0.0279    0.0020    0.0001    0.0000   -0.0017   -0.0016
           6   -0.0021    0.0035   -0.0007    0.0001   -0.0015   -0.0014   -0.0001   -0.0000
           7   -0.0039    0.0236   -0.0072    0.0049    0.0000    0.0000   -0.0946   -0.0944
           8    0.0052   -0.0001   -0.0013   -0.0137    0.0003    0.0003    0.2082    0.2077
           9    0.0001    0.0000   -0.0000   -0.0003   -0.0121   -0.0121    0.0050    0.0050
          10    0.0294   -0.0370    0.0028    0.0054   -0.0960   -0.0959    0.0504    0.0501
          11   -0.0162    0.0263   -0.0041    0.0088   -0.1147   -0.1145    0.0494    0.0491
          12    0.0203   -0.0212    0.0022   -0.0139    0.1742    0.1740   -0.0994   -0.0989
          13    0.0294   -0.0371    0.0028    0.0054    0.0956    0.0955    0.0501    0.0499
          14   -0.0152    0.0253   -0.0040    0.0081    0.1059    0.1057    0.0444    0.0441
          15   -0.0210    0.0224   -0.0024    0.0144    0.1800    0.1797    0.1018    0.1013
          16    0.0507   -0.0652    0.0097    0.0023    0.0000    0.0000    0.0004    0.0004
          17    0.0601   -0.0810    0.0111    0.0025    0.0000    0.0000    0.0003    0.0002
          18    0.0015   -0.0021    0.0003    0.0001    0.0000   -0.0001    0.0000    0.0000
          19    0.0060    0.0060    0.0236   -0.0236   -0.0000   -0.0000   -0.0002   -0.0001
          20    0.0038   -0.0189    0.0040    0.0011    0.0000    0.0000    0.0002    0.0001
          21    0.0001   -0.0005    0.0001   -0.0000   -0.0001   -0.0001   -0.0000   -0.0000
          22    0.0907    0.0444   -0.4048    0.4061   -0.0000   -0.0000   -0.0010   -0.0025
          23   -0.1592    0.0552    0.0757   -0.0780    0.0000   -0.0000    0.0001    0.0007
          24   -0.0038    0.0014    0.0014   -0.0015    0.0000    0.0005   -0.0000    0.0000
          25    0.1002    0.0937    0.0010   -0.0084   -0.0000    0.0000    0.0004   -0.0004
          26    0.0787    0.1343    0.0279    0.0020   -0.0001    0.0000    0.0017   -0.0016
          27    0.0021    0.0035    0.0007    0.0000    0.0015   -0.0014    0.0001   -0.0000
          28   -0.0180   -0.0143    0.0004    0.0013   -0.0000    0.0000    0.0003   -0.0003
          29   -0.0046   -0.0102   -0.0032   -0.0006   -0.0007    0.0007    0.0242   -0.0242
          30   -0.0001   -0.0003   -0.0001   -0.0000    0.0270   -0.0271    0.0006   -0.0006
          31   -0.0507   -0.0652   -0.0097    0.0023   -0.0000   -0.0000   -0.0004    0.0004
          32   -0.0601   -0.0810   -0.0111    0.0025   -0.0000   -0.0000   -0.0003    0.0002
          33   -0.0015   -0.0021   -0.0003    0.0000   -0.0000   -0.0001   -0.0000    0.0000
          34   -0.0060    0.0060   -0.0236   -0.0236    0.0000    0.0000    0.0002   -0.0001
          35   -0.0038   -0.0189   -0.0040    0.0011   -0.0000   -0.0000   -0.0002    0.0001
          36   -0.0001   -0.0005   -0.0001   -0.0000    0.0001   -0.0001    0.0000    0.0000
          37    0.0039    0.0236    0.0072    0.0049   -0.0000    0.0000    0.0945   -0.0945
          38   -0.0052   -0.0001    0.0013   -0.0137   -0.0003    0.0003   -0.2080    0.2080
          39   -0.0001    0.0000    0.0000   -0.0004    0.0121   -0.0121   -0.0050    0.0051
          40   -0.0294   -0.0371   -0.0028    0.0054   -0.0956    0.0955   -0.0501    0.0499
          41    0.0152    0.0252    0.0040    0.0081   -0.1059    0.1057   -0.0443    0.0441
          42    0.0210    0.0224    0.0024    0.0144   -0.1799    0.1798   -0.1017    0.1014
          43   -0.0294   -0.0370   -0.0028    0.0054    0.0960   -0.0959   -0.0503    0.0502
          44    0.0162    0.0263    0.0041    0.0088    0.1146   -0.1145   -0.0493    0.0491
          45   -0.0203   -0.0212   -0.0022   -0.0140   -0.1742    0.1741    0.0993   -0.0990
          46   -0.0907    0.0444    0.4048    0.4061    0.0000    0.0000    0.0010   -0.0025
          47    0.1592    0.0552   -0.0757   -0.0780   -0.0000   -0.0000   -0.0001    0.0007
          48    0.0038    0.0014   -0.0014   -0.0014   -0.0000    0.0005    0.0000    0.0000


   Root No.      41        42

                13 Bu     14 Ag  

                2769.5    2769.6
  
           1    0.0122   -0.0112
           2   -0.0005    0.0006
           3    0.0000    0.0000
           4    0.0047   -0.0044
           5    0.0006   -0.0005
           6    0.0000   -0.0000
           7   -0.0640    0.0588
           8    0.1576   -0.1446
           9    0.0038   -0.0033
          10   -0.0606    0.0556
          11   -0.0779    0.0713
          12    0.1270   -0.1164
          13   -0.0603    0.0553
          14   -0.0716    0.0658
          15   -0.1307    0.1197
          16   -0.0008    0.0008
          17   -0.0008    0.0007
          18   -0.0001    0.0002
          19   -0.0013    0.0004
          20    0.0003   -0.0002
          21    0.0001   -0.0002
          22    0.0180    0.0000
          23   -0.0015   -0.0013
          24    0.0001   -0.0003
          25    0.0041    0.0049
          26    0.0005    0.0006
          27    0.0000    0.0000
          28    0.0108    0.0126
          29   -0.0005   -0.0006
          30    0.0000   -0.0000
          31   -0.0007   -0.0009
          32   -0.0007   -0.0008
          33    0.0001   -0.0002
          34   -0.0013   -0.0006
          35    0.0003    0.0002
          36   -0.0001    0.0002
          37   -0.0567   -0.0663
          38    0.1396    0.1631
          39    0.0035    0.0038
          40   -0.0534   -0.0624
          41   -0.0633   -0.0742
          42   -0.1159   -0.1351
          43   -0.0537   -0.0627
          44   -0.0691   -0.0805
          45    0.1124    0.1313
          46    0.0178    0.0022
          47   -0.0017    0.0011
          48   -0.0001    0.0003


           MASS-WEIGHTED COORDINATE ANALYSIS (NORMAL COORDINATES)


   Root No.       1         2         3         4         5         6         7         8

                 1 Au      1 Bg      2 Au      1 Ag      2 Bg      3 Au      1 Bu      2 Ag  

                 -15.0     109.8     140.8     161.1     256.9     267.5     288.0     395.4
  
           1   -0.0006    0.0004    0.0001    0.0164   -0.0000    0.0001    0.0143    0.4240
           2   -0.0117    0.0078    0.0031    0.1655   -0.0005    0.0013    0.4786    0.0498
           3    0.4702   -0.3093   -0.1237    0.0042    0.0171   -0.0508    0.0120    0.0018
           4    0.0000   -0.0002   -0.0000    0.0139    0.0000   -0.0000    0.0019    0.3780
           5    0.0005   -0.0040   -0.0002   -0.1927    0.0007   -0.0007   -0.1442   -0.1003
           6   -0.0208    0.1626    0.0070   -0.0047   -0.0255    0.0280   -0.0035   -0.0020
           7   -0.0003    0.0002    0.0001    0.0767    0.0004   -0.0005    0.1526    0.1708
           8   -0.0055    0.0039    0.0015    0.0760    0.0094   -0.0095    0.2009    0.0361
           9    0.2210   -0.1558   -0.0622    0.0020   -0.3797    0.3810    0.0052    0.0011
          10    0.0823   -0.0836   -0.0289   -0.0299    0.0382   -0.0448   -0.0677    0.0997
          11   -0.0476    0.0283    0.0097    0.0727    0.3260   -0.3360    0.1941    0.0378
          12    0.1476   -0.1131   -0.0447   -0.0000    0.2265   -0.2457    0.0014    0.0030
          13   -0.0827    0.0839    0.0291   -0.0299   -0.0387    0.0454   -0.0677    0.0997
          14    0.0402   -0.0226   -0.0075    0.0726   -0.3369    0.3478    0.1939    0.0379
          15    0.1496   -0.1142   -0.0451    0.0036    0.2099   -0.2286    0.0082   -0.0009
          16    0.0004   -0.0005    0.0005    0.2428   -0.0002   -0.0000    0.0573    0.0468
          17    0.0095   -0.0102    0.0105   -0.3896   -0.0028   -0.0006   -0.2156    0.1624
          18   -0.3820    0.4136   -0.4213   -0.0091    0.1138    0.0249   -0.0052    0.0041
          19    0.0001   -0.0005   -0.0006   -0.2610    0.0003   -0.0000   -0.0715    0.2207
          20    0.0028   -0.0092   -0.0133   -0.3462    0.0038   -0.0004   -0.2089   -0.1464
          21   -0.1138    0.3719    0.5369   -0.0092   -0.1505    0.0174   -0.0053   -0.0034
          22    0.0001   -0.0001   -0.0001   -0.0636    0.0001   -0.0000   -0.0169    0.0690
          23    0.0023   -0.0013   -0.0023   -0.0896    0.0008   -0.0001   -0.0521   -0.0898
          24   -0.0942    0.0527    0.0942   -0.0024   -0.0321    0.0037   -0.0013   -0.0022
          25    0.0000    0.0002   -0.0000   -0.0139   -0.0000   -0.0000    0.0019   -0.3780
          26    0.0005    0.0040   -0.0002    0.1927   -0.0007   -0.0007   -0.1442    0.1003
          27   -0.0208   -0.1626    0.0070    0.0047    0.0255    0.0280   -0.0036    0.0020
          28   -0.0006   -0.0004    0.0001   -0.0164    0.0000    0.0001    0.0143   -0.4240
          29   -0.0117   -0.0078    0.0031   -0.1655    0.0005    0.0013    0.4786   -0.0498
          30    0.4702    0.3093   -0.1237   -0.0042   -0.0171   -0.0508    0.0118   -0.0018
          31    0.0005    0.0005    0.0005   -0.2428    0.0002   -0.0000    0.0573   -0.0468
          32    0.0095    0.0102    0.0105    0.3896    0.0027   -0.0006   -0.2156   -0.1624
          33   -0.3820   -0.4136   -0.4213    0.0091   -0.1138    0.0249   -0.0054   -0.0041
          34    0.0001    0.0005   -0.0006    0.2610   -0.0002   -0.0000   -0.0715   -0.2207
          35    0.0029    0.0092   -0.0134    0.3462   -0.0038   -0.0004   -0.2089    0.1464
          36   -0.1138   -0.3719    0.5369    0.0092    0.1506    0.0174   -0.0053    0.0034
          37   -0.0003   -0.0002    0.0001   -0.0767   -0.0004   -0.0005    0.1526   -0.1708
          38   -0.0055   -0.0039    0.0015   -0.0760   -0.0094   -0.0095    0.2009   -0.0361
          39    0.2210    0.1558   -0.0622   -0.0020    0.3798    0.3809    0.0052   -0.0011
          40   -0.0827   -0.0839    0.0291    0.0299    0.0387    0.0453   -0.0677   -0.0997
          41    0.0402    0.0226   -0.0075   -0.0726    0.3369    0.3477    0.1939   -0.0379
          42    0.1496    0.1142   -0.0451   -0.0036   -0.2099   -0.2286    0.0081    0.0009
          43    0.0823    0.0836   -0.0289    0.0299   -0.0382   -0.0448   -0.0677   -0.0997
          44   -0.0476   -0.0283    0.0097   -0.0727   -0.3260   -0.3359    0.1941   -0.0378
          45    0.1476    0.1131   -0.0447    0.0000   -0.2265   -0.2457    0.0013   -0.0030
          46    0.0001    0.0001   -0.0001    0.0636   -0.0000   -0.0000   -0.0169   -0.0690
          47    0.0023    0.0013   -0.0023    0.0896   -0.0008   -0.0001   -0.0521    0.0898
          48   -0.0942   -0.0527    0.0942    0.0024    0.0321    0.0037   -0.0013    0.0022


   Root No.       9        10        11        12        13        14        15        16

                 3 Ag      3 Bg      4 Au      2 Bu      4 Ag      3 Bu      5 Au      4 Bu  

                 421.4     555.6     557.6     575.1     761.0     810.2     912.7    1020.8
  
           1   -0.1210   -0.0001    0.0000    0.2898    0.0706    0.0219   -0.0001    0.3804
           2    0.2822    0.0002    0.0001   -0.0170   -0.0156    0.0491   -0.0018   -0.1207
           3    0.0071    0.0027   -0.0008   -0.0000   -0.0003    0.0015    0.0742   -0.0024
           4   -0.1200   -0.0007   -0.0006    0.2273   -0.0140   -0.0106   -0.0001   -0.1342
           5   -0.2155   -0.0134   -0.0134   -0.0118   -0.0315    0.2250   -0.0019   -0.0522
           6   -0.0054    0.5424    0.5398    0.0001   -0.0008    0.0057    0.0750   -0.0014
           7    0.1148    0.0002    0.0002    0.0899    0.0081   -0.1829    0.0000    0.2748
           8    0.1484    0.0034    0.0034   -0.0017   -0.0089   -0.0736    0.0009    0.0540
           9    0.0039   -0.1338   -0.1375   -0.0001   -0.0002   -0.0020   -0.0346    0.0018
          10   -0.1082   -0.1962   -0.1979    0.0842    0.0236    0.0934   -0.0743    0.0290
          11    0.1449    0.0226    0.0249   -0.0011   -0.0107   -0.0743   -0.0002    0.0306
          12    0.0021   -0.0895   -0.0900    0.0025    0.0014   -0.0022   -0.0225    0.0070
          13   -0.1083    0.1964    0.1981    0.0842    0.0236    0.0933    0.0744    0.0290
          14    0.1449   -0.0180   -0.0204   -0.0013   -0.0106   -0.0743    0.0013    0.0311
          15    0.0050   -0.0900   -0.0907   -0.0022   -0.0018   -0.0011   -0.0223   -0.0055
          16   -0.3458    0.0004    0.0002   -0.2214    0.3478    0.4141    0.0001   -0.1036
          17   -0.0805    0.0056    0.0044    0.3364   -0.3424   -0.1428    0.0022   -0.2487
          18   -0.0022   -0.2250   -0.1751    0.0076   -0.0081   -0.0030   -0.0893   -0.0058
          19    0.3154    0.0002    0.0002   -0.2703    0.2973   -0.3933    0.0002   -0.1820
          20   -0.0468    0.0044    0.0041   -0.2695    0.3369   -0.0067    0.0046    0.3575
          21   -0.0008   -0.1697   -0.1645   -0.0065    0.0088   -0.0006   -0.1852    0.0082
          22    0.0985    0.0001    0.0002   -0.0844    0.1217   -0.1257   -0.0008   -0.0449
          23    0.0818    0.0030    0.0047   -0.1631    0.1926   -0.1286   -0.0164    0.0472
          24    0.0021   -0.1193   -0.1896   -0.0041    0.0049   -0.0034    0.6581    0.0010
          25    0.1200    0.0006   -0.0006    0.2273    0.0140   -0.0106   -0.0001   -0.1342
          26    0.2155    0.0134   -0.0135   -0.0118    0.0315    0.2251   -0.0019   -0.0522
          27    0.0054   -0.5424    0.5398   -0.0001    0.0008    0.0055    0.0750   -0.0015
          28    0.1210   -0.0001   -0.0000    0.2898   -0.0706    0.0219   -0.0001    0.3804
          29   -0.2822   -0.0002   -0.0001   -0.0170    0.0156    0.0491   -0.0019   -0.1207
          30   -0.0071   -0.0027   -0.0008   -0.0001    0.0003    0.0010    0.0742   -0.0026
          31    0.3458   -0.0003    0.0002   -0.2214   -0.3478    0.4141    0.0001   -0.1036
          32    0.0805   -0.0058    0.0043    0.3364    0.3424   -0.1428    0.0022   -0.2486
          33    0.0022    0.2250   -0.1751    0.0086    0.0081   -0.0032   -0.0893   -0.0069
          34   -0.3154   -0.0001    0.0002   -0.2703   -0.2973   -0.3933    0.0002   -0.1820
          35    0.0468   -0.0043    0.0041   -0.2695   -0.3369   -0.0067    0.0046    0.3575
          36    0.0008    0.1697   -0.1645   -0.0075   -0.0088   -0.0007   -0.1852    0.0092
          37   -0.1148   -0.0002    0.0002    0.0899   -0.0081   -0.1829    0.0000    0.2748
          38   -0.1484   -0.0034    0.0034   -0.0017    0.0089   -0.0736    0.0009    0.0540
          39   -0.0039    0.1338   -0.1375    0.0002    0.0002   -0.0021   -0.0346    0.0015
          40    0.1083   -0.1964    0.1982    0.0842   -0.0236    0.0934    0.0744    0.0290
          41   -0.1449    0.0180   -0.0204   -0.0010    0.0106   -0.0743    0.0013    0.0309
          42   -0.0050    0.0900   -0.0907   -0.0023    0.0018   -0.0013   -0.0223   -0.0054
          43    0.1083    0.1961   -0.1979    0.0842   -0.0236    0.0933   -0.0743    0.0290
          44   -0.1450   -0.0226    0.0249   -0.0014    0.0107   -0.0743   -0.0002    0.0308
          45   -0.0021    0.0895   -0.0900    0.0023   -0.0014   -0.0023   -0.0225    0.0071
          46   -0.0985   -0.0001    0.0002   -0.0844   -0.1217   -0.1257   -0.0008   -0.0449
          47   -0.0818   -0.0029    0.0047   -0.1631   -0.1926   -0.1286   -0.0164    0.0472
          48   -0.0021    0.1192   -0.1896   -0.0043   -0.0049   -0.0033    0.6581    0.0013


   Root No.      17        18        19        20        21        22        23        24

                 5 Ag      5 Bu      4 Bg      6 Au      6 Ag      5 Bg      6 Bu      7 Ag  

                1033.7    1058.5    1067.9    1080.5    1083.1    1157.0    1267.1    1269.0
  
           1   -0.0159   -0.2003    0.0003   -0.0003    0.4279   -0.0001   -0.1311   -0.1133
           2   -0.3073   -0.2657    0.0072   -0.0075    0.0123   -0.0018   -0.1058   -0.1338
           3   -0.0072   -0.0067   -0.3029    0.3056    0.0006    0.0797   -0.0029   -0.0036
           4    0.0368    0.1240   -0.0003    0.0003   -0.2531    0.0002    0.1133    0.0840
           5   -0.0475    0.0448   -0.0069    0.0080   -0.0057    0.0042   -0.0813   -0.0785
           6   -0.0007    0.0015    0.2659   -0.3181   -0.0004   -0.1672   -0.0019   -0.0020
           7    0.4535    0.3388   -0.0005    0.0002    0.0975   -0.0000   -0.1256   -0.1155
           8    0.1288    0.1069   -0.0041    0.0039    0.0060    0.0010   -0.0581   -0.0604
           9    0.0039    0.0032    0.1543   -0.1541    0.0003   -0.0389   -0.0014   -0.0020
          10   -0.2263   -0.2526    0.3481   -0.3488    0.1320   -0.0790    0.1625    0.1686
          11    0.1041    0.0888   -0.0088    0.0093   -0.0117   -0.0002    0.2700    0.2931
          12   -0.0115   -0.0193    0.1141   -0.1136    0.0139   -0.0259    0.2614    0.2810
          13   -0.2266   -0.2529   -0.3481    0.3491    0.1317    0.0791    0.1632    0.1692
          14    0.1034    0.0877    0.0028   -0.0036   -0.0110    0.0015    0.2827    0.3068
          15    0.0166    0.0233    0.1135   -0.1131   -0.0142   -0.0256   -0.2474   -0.2658
          16    0.0364    0.2195   -0.0001   -0.0001   -0.2910    0.0000   -0.0528   -0.0443
          17    0.0457    0.1212    0.0012   -0.0015   -0.1796   -0.0001   -0.0482   -0.0529
          18    0.0013    0.0034   -0.0561    0.0625   -0.0050    0.0046   -0.0011   -0.0017
          19   -0.1224   -0.0987    0.0003   -0.0002   -0.2214   -0.0002    0.0259   -0.0222
          20    0.1790    0.0384   -0.0007   -0.0014    0.1720   -0.0039    0.1515    0.1276
          21    0.0047    0.0010    0.0148    0.0607    0.0040    0.1592    0.0035    0.0033
          22   -0.0349   -0.0512    0.0003    0.0001   -0.0744    0.0008   -0.0314   -0.0261
          23   -0.0568   -0.1570    0.0051    0.0017    0.0811    0.0162   -0.2604   -0.1734
          24   -0.0015   -0.0041   -0.2047   -0.0672    0.0019   -0.6517   -0.0066   -0.0043
          25   -0.0368    0.1240    0.0003    0.0004    0.2531   -0.0002    0.1133   -0.0840
          26    0.0475    0.0448    0.0068    0.0078    0.0057   -0.0042   -0.0813    0.0785
          27    0.0008    0.0010   -0.2658   -0.3181    0.0005    0.1672   -0.0019    0.0020
          28    0.0159   -0.2003   -0.0002   -0.0005   -0.4279    0.0001   -0.1311    0.1133
          29    0.3073   -0.2657   -0.0071   -0.0077   -0.0123    0.0019   -0.1058    0.1338
          30    0.0072   -0.0070    0.3029    0.3057   -0.0007   -0.0797   -0.0027    0.0037
          31   -0.0364    0.2195   -0.0000   -0.0001    0.2910   -0.0000   -0.0528    0.0443
          32   -0.0457    0.1212   -0.0013   -0.0016    0.1796    0.0001   -0.0482    0.0529
          33   -0.0013    0.0032    0.0560    0.0625    0.0049   -0.0046   -0.0015    0.0017
          34    0.1224   -0.0987   -0.0002    0.0000    0.2214    0.0002    0.0259    0.0222
          35   -0.1790    0.0384    0.0007   -0.0016   -0.1720    0.0039    0.1515   -0.1276
          36   -0.0047    0.0007   -0.0148    0.0607   -0.0040   -0.1592    0.0041   -0.0033
          37   -0.4535    0.3388    0.0003    0.0001   -0.0975   -0.0001   -0.1256    0.1155
          38   -0.1288    0.1069    0.0040    0.0038   -0.0060   -0.0010   -0.0580    0.0604
          39   -0.0039    0.0030   -0.1543   -0.1541   -0.0002    0.0389   -0.0018    0.0019
          40    0.2266   -0.2526    0.3482    0.3491   -0.1319   -0.0791    0.1631   -0.1692
          41   -0.1034    0.0877   -0.0028   -0.0037    0.0110   -0.0015    0.2827   -0.3068
          42   -0.0166    0.0231   -0.1136   -0.1131    0.0142    0.0256   -0.2473    0.2658
          43    0.2263   -0.2528   -0.3479   -0.3489   -0.1318    0.0791    0.1626   -0.1686
          44   -0.1041    0.0888    0.0088    0.0093    0.0117    0.0002    0.2700   -0.2931
          45    0.0115   -0.0196   -0.1141   -0.1136   -0.0139    0.0259    0.2615   -0.2810
          46    0.0349   -0.0512   -0.0003    0.0001    0.0744   -0.0008   -0.0314    0.0261
          47    0.0568   -0.1570   -0.0050    0.0017   -0.0811   -0.0162   -0.2604    0.1733
          48    0.0015   -0.0039    0.2047   -0.0672   -0.0019    0.6517   -0.0064    0.0043


   Root No.      25        26        27        28        29        30        31        32

                 6 Bg      7 Au      7 Bu      8 Ag      8 Bu      9 Ag     10 Ag      9 Bu  

                1282.2    1282.3    1288.7    1297.0    1381.2    1384.6    1446.2    1453.4
  
           1    0.0001    0.0002    0.0611    0.0877   -0.2989    0.2762    0.0568   -0.0843
           2    0.0042    0.0039   -0.1657   -0.1448    0.0401   -0.0326   -0.0505    0.0443
           3   -0.1546   -0.1534   -0.0041   -0.0035    0.0007   -0.0005   -0.0011    0.0012
           4    0.0002    0.0000   -0.1305   -0.1689    0.0663    0.0027   -0.2445    0.4177
           5    0.0004    0.0004    0.1027    0.1485   -0.0274   -0.0099    0.4134   -0.3087
           6   -0.0162   -0.0141    0.0024    0.0035   -0.0006   -0.0002    0.0100   -0.0071
           7   -0.0006   -0.0006    0.0257    0.0222    0.3482   -0.3651    0.1093   -0.1526
           8   -0.0123   -0.0124   -0.0190   -0.0159    0.1700   -0.1780    0.0480   -0.0691
           9    0.4993    0.4987   -0.0001   -0.0003    0.0046   -0.0047    0.0013   -0.0018
          10   -0.1848   -0.1834    0.0263   -0.0098    0.2954   -0.3028    0.0052   -0.0669
          11    0.2760    0.2767    0.1952    0.1621   -0.1661    0.1586    0.0240   -0.0039
          12    0.0554    0.0569    0.1474    0.1063    0.0650   -0.0749    0.0217   -0.0464
          13    0.1845    0.1833    0.0270   -0.0095    0.2956   -0.3030    0.0052   -0.0670
          14   -0.2786   -0.2791    0.2016    0.1671   -0.1629    0.1552    0.0250   -0.0061
          15    0.0423    0.0435   -0.1372   -0.0982   -0.0724    0.0817   -0.0204    0.0460
          16   -0.0000    0.0000    0.1220    0.1122    0.0117   -0.0119    0.0330    0.0056
          17    0.0000    0.0001    0.0732    0.1309   -0.0009   -0.0224   -0.1232   -0.0187
          18    0.0010   -0.0045    0.0016    0.0035   -0.0003    0.0004   -0.0031   -0.0001
          19   -0.0000   -0.0000   -0.0956    0.0129   -0.0517    0.0114    0.2801   -0.2316
          20    0.0005    0.0001   -0.2342   -0.2956    0.0019    0.0392   -0.1583    0.1937
          21   -0.0040   -0.0024   -0.0055   -0.0074    0.0003   -0.0000   -0.0034    0.0043
          22   -0.0001   -0.0000    0.0557    0.0639    0.0233   -0.0184   -0.1148    0.0361
          23   -0.0004   -0.0002    0.4815    0.4724    0.1111   -0.0981   -0.3376    0.2947
          24   -0.0053    0.0065    0.0122    0.0118    0.0029   -0.0027   -0.0085    0.0073
          25    0.0000   -0.0000   -0.1305    0.1689    0.0663   -0.0026    0.2445    0.4177
          26   -0.0006    0.0003    0.1027   -0.1485   -0.0274    0.0099   -0.4134   -0.3087
          27    0.0162   -0.0141    0.0024   -0.0035   -0.0006    0.0002   -0.0100   -0.0073
          28   -0.0002    0.0002    0.0611   -0.0877   -0.2988   -0.2764   -0.0568   -0.0843
          29   -0.0039    0.0037   -0.1657    0.1448    0.0401    0.0327    0.0505    0.0443
          30    0.1545   -0.1535   -0.0040    0.0035    0.0006    0.0005    0.0011    0.0008
          31   -0.0002   -0.0000    0.1220   -0.1122    0.0117    0.0119   -0.0330    0.0056
          32   -0.0001    0.0001    0.0732   -0.1309   -0.0010    0.0224    0.1232   -0.0187
          33   -0.0010   -0.0045    0.0024   -0.0035    0.0003   -0.0004    0.0031   -0.0008
          34    0.0002    0.0000   -0.0956   -0.0129   -0.0517   -0.0115   -0.2801   -0.2316
          35   -0.0001   -0.0000   -0.2342    0.2956    0.0019   -0.0392    0.1583    0.1937
          36    0.0040   -0.0024   -0.0064    0.0074   -0.0003    0.0000    0.0034    0.0048
          37    0.0006   -0.0006    0.0257   -0.0222    0.3480    0.3653   -0.1093   -0.1526
          38    0.0124   -0.0124   -0.0190    0.0159    0.1699    0.1781   -0.0480   -0.0691
          39   -0.4988    0.4992   -0.0008    0.0003    0.0047    0.0047   -0.0013   -0.0020
          40   -0.1845    0.1835    0.0266    0.0095    0.2954    0.3031   -0.0052   -0.0670
          41    0.2778   -0.2795    0.2023   -0.1671   -0.1626   -0.1553   -0.0250   -0.0062
          42   -0.0419    0.0435   -0.1375    0.0982   -0.0724   -0.0817    0.0204    0.0460
          43    0.1845   -0.1836    0.0266    0.0098    0.2953    0.3029   -0.0052   -0.0669
          44   -0.2762    0.2769    0.1946   -0.1621   -0.1662   -0.1587   -0.0240   -0.0038
          45   -0.0558    0.0569    0.1472   -0.1063    0.0648    0.0749   -0.0217   -0.0464
          46   -0.0000    0.0000    0.0557   -0.0639    0.0233    0.0185    0.1148    0.0361
          47   -0.0004   -0.0001    0.4816   -0.4724    0.1111    0.0982    0.3376    0.2947
          48    0.0053    0.0065    0.0119   -0.0118    0.0027    0.0027    0.0085    0.0074


   Root No.      33        34        35        36        37        38        39        40

                11 Ag     10 Bu     12 Ag     11 Bu      7 Bg      8 Au     13 Ag     12 Bu  

                1783.2    1842.3    2411.2    2534.9    2651.2    2651.8    2664.8    2665.2
  
           1    0.0762   -0.0489   -0.0024    0.0076    0.0002    0.0002   -0.0022   -0.0023
           2    0.0195   -0.0348    0.0178   -0.0034    0.0051    0.0049   -0.1979   -0.1983
           3    0.0005   -0.0009    0.0005    0.0000   -0.1952   -0.1957   -0.0052   -0.0050
           4   -0.4236    0.3197   -0.0054   -0.0482    0.0000    0.0000   -0.0033   -0.0030
           5   -0.3327    0.4582   -0.1557    0.0117    0.0004    0.0003   -0.0140   -0.0133
           6   -0.0088    0.0118   -0.0039    0.0003   -0.0105   -0.0104   -0.0005   -0.0004
           7   -0.0047    0.0233   -0.0117    0.0081    0.0001    0.0000   -0.2242   -0.2242
           8    0.0064   -0.0001   -0.0022   -0.0228    0.0007    0.0007    0.4937    0.4935
           9    0.0001    0.0000   -0.0001   -0.0005   -0.0252   -0.0253    0.0120    0.0120
          10    0.0360   -0.0366    0.0046    0.0090   -0.2008   -0.2007    0.1194    0.1190
          11   -0.0198    0.0260   -0.0067    0.0146   -0.2398   -0.2396    0.1171    0.1166
          12    0.0248   -0.0210    0.0036   -0.0231    0.3643    0.3642   -0.2357   -0.2349
          13    0.0360   -0.0367    0.0046    0.0089    0.1999    0.1998    0.1189    0.1185
          14   -0.0186    0.0250   -0.0065    0.0134    0.2215    0.2213    0.1052    0.1048
          15   -0.0257    0.0221   -0.0039    0.0239    0.3764    0.3762    0.2413    0.2407
          16    0.2475   -0.2568    0.0625    0.0152    0.0001    0.0000    0.0042    0.0036
          17    0.2933   -0.3189    0.0713    0.0168    0.0001    0.0000    0.0028    0.0022
          18    0.0074   -0.0082    0.0018    0.0005    0.0003   -0.0005    0.0001    0.0001
          19    0.0293    0.0237    0.1521   -0.1556   -0.0001   -0.0000   -0.0016   -0.0010
          20    0.0183   -0.0744    0.0256    0.0072    0.0001    0.0000    0.0016    0.0012
          21    0.0007   -0.0019    0.0009   -0.0000   -0.0009   -0.0008   -0.0003   -0.0001
          22    0.1110    0.0439   -0.6537    0.6736   -0.0000   -0.0000   -0.0025   -0.0060
          23   -0.1949    0.0545    0.1222   -0.1294    0.0000   -0.0000    0.0003    0.0016
          24   -0.0047    0.0014    0.0023   -0.0024    0.0000    0.0011   -0.0000    0.0000
          25    0.4236    0.3197    0.0054   -0.0482   -0.0000    0.0000    0.0033   -0.0030
          26    0.3327    0.4582    0.1557    0.0117   -0.0004    0.0002    0.0140   -0.0133
          27    0.0088    0.0118    0.0039    0.0002    0.0105   -0.0104    0.0005   -0.0003
          28   -0.0762   -0.0489    0.0024    0.0076   -0.0002    0.0002    0.0021   -0.0023
          29   -0.0195   -0.0348   -0.0178   -0.0034   -0.0051    0.0048    0.1977   -0.1985
          30   -0.0005   -0.0009   -0.0005   -0.0002    0.1951   -0.1957    0.0052   -0.0048
          31   -0.2475   -0.2568   -0.0625    0.0152   -0.0001   -0.0000   -0.0042    0.0036
[...]
 TRAVEL (Ang.)       0.5255         C 10 -- H 14         +12.0% ( 29.7%)      5.7%
 REDUCED MASS        0.1904         C 10 -- H 15         +12.0% ( 29.7%)      6.8%
 EFFECTIVE MASS      1.3821         C  1 -- H  4         +12.0% ( 29.7%)      7.3%
 FORCE CONSTANT      0.1845         C  1 -- H  5         +12.0% ( 29.7%)      5.2%

 VIBRATION         27    7Bu          ATOM PAIR      ENERGY CONTRIBUTION    RADIAL
 FREQUENCY          1288.68         O 12 -- H 16         +25.3% ( 55.4%)      2.6%
 TRANSITION DIPOLE   1.5722         O  7 -- H  8         +25.3% ( 55.4%)      2.6%
 TRAVEL (Ang.)       0.4094         C  9 -- O 12          +5.6% ( 26.0%)     91.9%
 REDUCED MASS        0.3122         C  2 -- O  7          +5.6% ( 26.0%)     91.9%
 EFFECTIVE MASS      4.4406
 FORCE CONSTANT      0.3055

 VIBRATION         28    8Ag          ATOM PAIR      ENERGY CONTRIBUTION    RADIAL
 FREQUENCY          1296.98         O  7 -- H  8         +22.3% ( 54.9%)      0.0%
 TRANSITION DIPOLE   0.0000         O 12 -- H 16         +22.3% ( 54.9%)      0.0%
 TRAVEL (Ang.)       0.3344         C  2 -- O  7          +9.5% ( 35.8%)    100.0%
 REDUCED MASS        0.4650         C  9 -- O 12          +9.5% ( 35.8%)    100.0%
 EFFECTIVE MASS      6.0760
 FORCE CONSTANT      0.4608

 VIBRATION         29    8Bu          ATOM PAIR      ENERGY CONTRIBUTION    RADIAL
 FREQUENCY          1381.19         C  1 -- H  3         +15.2% ( 41.6%)      3.0%
 TRANSITION DIPOLE   1.7667         C 10 -- H 13         +15.2% ( 41.5%)      3.0%
 TRAVEL (Ang.)       0.4018         C  1 -- H  5         +13.5% ( 39.1%)      0.9%
 REDUCED MASS        0.3024         C  1 -- H  4         +13.5% ( 39.1%)      1.1%
 EFFECTIVE MASS      2.7944         C 10 -- H 15         +13.5% ( 39.1%)      1.0%
 FORCE CONSTANT      0.3399         C 10 -- H 14         +13.4% ( 39.1%)      0.9%

 VIBRATION         30    9Ag          ATOM PAIR      ENERGY CONTRIBUTION    RADIAL
 FREQUENCY          1384.59         C 10 -- H 13         +16.8% ( 41.7%)      2.2%
 TRANSITION DIPOLE   0.0005         C  1 -- H  3         +16.8% ( 41.7%)      2.2%
 TRAVEL (Ang.)       0.4330         C 10 -- H 14         +14.0% ( 38.1%)      0.8%
 REDUCED MASS        0.2598         C 10 -- H 15         +14.0% ( 38.1%)      0.9%
 EFFECTIVE MASS      2.3595         C  1 -- H  5         +14.0% ( 38.1%)      0.8%
 FORCE CONSTANT      0.2934         C  1 -- H  4         +14.0% ( 38.1%)      0.9%

 VIBRATION         31   10Ag          ATOM PAIR      ENERGY CONTRIBUTION    RADIAL
 FREQUENCY          1446.25         C  2 -- O  7         +17.0% ( 54.8%)     88.2%
 TRANSITION DIPOLE   0.0000         C  9 -- O 12         +17.0% ( 54.8%)     88.2%
 TRAVEL (Ang.)       0.1674         C  2 -- O  6         +11.1% ( 44.3%)     20.5%
 REDUCED MASS        1.6645         C  9 -- O 11         +11.1% ( 44.3%)     20.5%
 EFFECTIVE MASS      9.3095         O  7 -- H  8         +10.7% ( 43.5%)     79.2%
 FORCE CONSTANT      2.0513         O 12 -- H 16         +10.7% ( 43.5%)     79.2%
                            C  1 -- C  2         +10.2% ( 42.4%)     29.7%
                            C  9 -- C 10         +10.2% ( 42.4%)     29.7%

 VIBRATION         32    9Bu          ATOM PAIR      ENERGY CONTRIBUTION    RADIAL
 FREQUENCY          1453.43         C  9 -- O 12         +18.4% ( 55.8%)     75.2%
 TRANSITION DIPOLE   3.2479         C  2 -- O  7         +18.4% ( 55.8%)     75.2%
 TRAVEL (Ang.)       0.1510         C  9 -- C 10         +12.0% ( 45.1%)     66.9%
 REDUCED MASS        2.0344         C  1 -- C  2         +12.0% ( 45.1%)     66.9%
 EFFECTIVE MASS      9.4512         C  9 -- O 11         +10.7% ( 42.5%)      0.0%
 FORCE CONSTANT      2.5320         C  2 -- O  6         +10.7% ( 42.5%)      0.0%

 VIBRATION         33   11Ag          ATOM PAIR      ENERGY CONTRIBUTION    RADIAL
 FREQUENCY          1783.24         C  2 -- O  6         +24.1% ( 66.2%)     96.2%
 TRANSITION DIPOLE   0.0000         C  9 -- O 11         +24.1% ( 66.2%)     96.2%
 TRAVEL (Ang.)       0.1178         C  1 -- C  2         +11.5% ( 45.8%)     66.8%
 REDUCED MASS        2.7246         C  9 -- C 10         +11.5% ( 45.8%)     66.8%
 EFFECTIVE MASS     11.9722         C  2 -- O  7         +11.0% ( 44.7%)      7.0%
 FORCE CONSTANT      5.1046         C  9 -- O 12         +11.0% ( 44.7%)      7.0%

 VIBRATION         34   10Bu          ATOM PAIR      ENERGY CONTRIBUTION    RADIAL
 FREQUENCY          1842.31         C  9 -- O 11         +25.7% ( 67.7%)    100.0%
 TRANSITION DIPOLE   8.0360         C  2 -- O  6         +25.7% ( 67.7%)    100.0%
 TRAVEL (Ang.)       0.1062         C  9 -- O 12         +11.9% ( 46.2%)     38.8%
 REDUCED MASS        3.2434         C  2 -- O  7         +11.9% ( 46.2%)     38.8%
 EFFECTIVE MASS     13.0665         C  9 -- C 10         +11.7% ( 45.8%)     35.8%
 FORCE CONSTANT      6.4860         C  1 -- C  2         +11.7% ( 45.8%)     35.8%

 VIBRATION         35   12Ag          ATOM PAIR      ENERGY CONTRIBUTION    RADIAL
 FREQUENCY          2411.23         O 12 -- H 16         +46.6% ( 69.3%)     99.5%
 TRANSITION DIPOLE   0.0000         O  7 -- H  8         +46.6% ( 69.3%)     99.5%
 TRAVEL (Ang.)       0.2552         C  9 -- O 11          +1.5% ( 12.6%)     89.3%
 REDUCED MASS        0.4292         C  2 -- O  6          +1.5% ( 12.6%)     89.3%
 EFFECTIVE MASS      1.9409
 FORCE CONSTANT      1.4704

 VIBRATION         36   11Bu          ATOM PAIR      ENERGY CONTRIBUTION    RADIAL
 FREQUENCY          2534.88         O  7 -- H  8         +49.2% ( 67.9%)     98.6%
 TRANSITION DIPOLE   4.6601         O 12 -- H 16         +49.2% ( 67.9%)     98.7%
 TRAVEL (Ang.)       0.2391         C  9 -- O 12          +0.4% (  5.8%)     11.7%
 REDUCED MASS        0.4651         C  2 -- O  7          +0.4% (  5.8%)     11.7%
 EFFECTIVE MASS      1.4026
 FORCE CONSTANT      1.7609

 VIBRATION         37    7Bg          ATOM PAIR      ENERGY CONTRIBUTION    RADIAL
 FREQUENCY          2651.18         C  1 -- H  5         +24.6% ( 51.2%)     97.0%
 TRANSITION DIPOLE   0.0002         C  1 -- H  4         +24.6% ( 51.2%)     98.4%
 TRAVEL (Ang.)       0.3195         C 10 -- H 14         +24.6% ( 51.2%)     97.4%
 REDUCED MASS        0.2492         C 10 -- H 15         +24.6% ( 51.2%)     98.2%
 EFFECTIVE MASS      1.4413
 FORCE CONSTANT      1.0321

 VIBRATION         38    8Au          ATOM PAIR      ENERGY CONTRIBUTION    RADIAL
 FREQUENCY          2651.76         C 10 -- H 15         +24.6% ( 51.2%)     98.1%
 TRANSITION DIPOLE   1.3235         C 10 -- H 14         +24.6% ( 51.2%)     97.4%
 TRAVEL (Ang.)       0.3193         C  1 -- H  5         +24.6% ( 51.2%)     97.0%
 REDUCED MASS        0.2494         C  1 -- H  4         +24.6% ( 51.2%)     98.4%
 EFFECTIVE MASS      1.4428
 FORCE CONSTANT      1.0333

 VIBRATION         39   13Ag          ATOM PAIR      ENERGY CONTRIBUTION    RADIAL
 FREQUENCY          2664.77         C  1 -- H  3         +31.4% ( 57.9%)     99.6%
 TRANSITION DIPOLE   0.0006         C 10 -- H 13         +31.3% ( 57.8%)     99.6%
 TRAVEL (Ang.)       0.3255         C  1 -- H  4          +9.1% ( 31.1%)     85.7%
 REDUCED MASS        0.2389         C  1 -- H  5          +9.1% ( 31.1%)     88.9%
 EFFECTIVE MASS      1.4617
 FORCE CONSTANT      0.9995

 VIBRATION         40   12Bu          ATOM PAIR      ENERGY CONTRIBUTION    RADIAL
 FREQUENCY          2665.19         C 10 -- H 13         +31.5% ( 57.9%)     99.6%
 TRANSITION DIPOLE   1.1815         C  1 -- H  3         +31.4% ( 57.8%)     99.6%
 TRAVEL (Ang.)       0.3249         C 10 -- H 14          +9.0% ( 31.1%)     88.1%
 REDUCED MASS        0.2396         C 10 -- H 15          +9.0% ( 31.1%)     86.4%
 EFFECTIVE MASS      1.4628
 FORCE CONSTANT      1.0029

 VIBRATION         41   13Bu          ATOM PAIR      ENERGY CONTRIBUTION    RADIAL
 FREQUENCY          2769.48         C  1 -- H  3         +20.1% ( 43.0%)     95.4%
 TRANSITION DIPOLE   0.6668         C  1 -- H  4         +17.7% ( 40.4%)     94.5%
 TRAVEL (Ang.)       0.3855         C  1 -- H  5         +17.7% ( 40.4%)     94.5%
 REDUCED MASS        0.1638         C 10 -- H 13         +15.8% ( 38.1%)     95.4%
 EFFECTIVE MASS      1.1533         C 10 -- H 14         +13.9% ( 35.8%)     94.5%
 FORCE CONSTANT      0.7404         C 10 -- H 15         +13.9% ( 35.8%)     94.6%

 VIBRATION         42   14Ag          ATOM PAIR      ENERGY CONTRIBUTION    RADIAL
 FREQUENCY          2769.64         C 10 -- H 13         +20.2% ( 43.1%)     95.4%
 TRANSITION DIPOLE   0.0403         C 10 -- H 15         +17.8% ( 40.4%)     94.6%
 TRAVEL (Ang.)       0.3838         C 10 -- H 14         +17.8% ( 40.4%)     94.5%
 REDUCED MASS        0.1653         C  1 -- H  3         +15.9% ( 38.2%)     95.4%
 EFFECTIVE MASS      1.1518         C  1 -- H  4         +14.0% ( 35.8%)     94.5%
 FORCE CONSTANT      0.7471         C  1 -- H  5         +14.0% ( 35.8%)     94.5%

      SYMMETRY NUMBER FOR POINT-GROUP C2h =  2


          SYSTEM IS A GROUND STATE



 dimer kyseliny octovej


          MOLECULE IS NOT LINEAR

          THERE ARE 42 GENUINE VIBRATIONS IN THIS SYSTEM
          THIS THERMODYNAMICS CALCULATION IS LIMITED TO
          MOLECULES WHICH HAVE NO INTERNAL ROTATIONS




                    CALCULATED THERMODYNAMIC PROPERTIES
                                          *
   TEMP. (K)   PARTITION FUNCTION   H.O.F.    ENTHALPY  HEAT CAPACITY ENTROPY
                                   KCAL/MOL   CAL/MOLE    CAL/K/MOL  CAL/K/MOL


 298.00  VIB.     0.6294D+03                  3730.8742    24.5263    25.3266
         ROT.     0.2231D+06                   888.2803     2.9808    27.4542
         INT.     0.1404D+09                  4619.1545    27.5071    52.7808
         TRA.     0.1273D+28                  1480.4672     4.9680    40.2618
         TOT.                     -221.939    6099.6216    32.4751    93.0427

 200.00  VIB.     0.7782D+02                  1713.4328    16.7418    17.2202
         ROT.     0.1227D+06                   596.1613     2.9808    26.2655
         INT.     0.9547D+07                  2309.5941    19.7226    43.4857
         TRA.     0.6997D+27                   993.6021     4.9680    38.2807
         TOT.                     -224.736    3303.1962    24.6906    81.7664

 210.00  VIB.     0.9652D+02                  1884.6823    17.5089    18.0556
         ROT.     0.1320D+06                   625.9693     2.9808    26.4109
         INT.     0.1274D+08                  2510.6517    20.4897    44.4666
         TRA.     0.7528D+27                  1043.2822     4.9680    38.5231
         TOT.                     -224.485    3553.9339    25.4577    82.9897

 220.00  VIB.     0.1196D+03                  2063.6296    18.2815    18.8879
         ROT.     0.1415D+06                   655.7774     2.9808    26.5496
         INT.     0.1693D+08                  2719.4070    21.2624    45.4375
         TRA.     0.8072D+27                  1092.9623     4.9680    38.7542
         TOT.                     -224.226    3812.3694    26.2304    84.1918

 230.00  VIB.     0.1482D+03                  2250.3351    19.0607    19.7177
         ROT.     0.1513D+06                   685.5855     2.9808    26.6821
         INT.     0.2243D+08                  2935.9206    22.0415    46.3999
         TRA.     0.8628D+27                  1142.6424     4.9680    38.9750
         TOT.                     -223.960    4078.5630    27.0095    85.3749

 240.00  VIB.     0.1836D+03                  2444.8672    19.8469    20.5455
         ROT.     0.1613D+06                   715.3935     2.9808    26.8090
         INT.     0.2960D+08                  3160.2608    22.8277    47.3545
         TRA.     0.9197D+27                  1192.3226     4.9680    39.1865
         TOT.                     -223.686    4352.5833    27.7957    86.5410

 250.00  VIB.     0.2272D+03                  2647.2970    20.6402    21.3718
         ROT.     0.1714D+06                   745.2016     2.9808    26.9307
         INT.     0.3896D+08                  3392.4986    23.6210    48.3025
         TRA.     0.9778D+27                  1242.0027     4.9680    39.3893
         TOT.                     -223.404    4634.5013    28.5890    87.6917

 260.00  VIB.     0.2812D+03                  2857.6938    21.4402    22.1969
         ROT.     0.1818D+06                   775.0097     2.9808    27.0476
         INT.     0.5113D+08                  3632.7034    24.4210    49.2445
         TRA.     0.1037D+28                  1291.6828     4.9680    39.5841
         TOT.                     -223.114    4924.3862    29.3890    88.8286

 270.00  VIB.     0.3478D+03                  3076.1213    22.2462    23.0211
         ROT.     0.1924D+06                   804.8177     2.9808    27.1601
         INT.     0.6692D+08                  3880.9390    25.2270    50.1812
         TRA.     0.1097D+28                  1341.3629     4.9680    39.7716
         TOT.                     -222.817    5222.3019    30.1950    89.9528

 280.00  VIB.     0.4299D+03                  3302.6352    23.0573    23.8448
         ROT.     0.2032D+06                   834.6258     2.9808    27.2685
         INT.     0.8737D+08                  4137.2610    26.0381    51.1133
         TRA.     0.1159D+28                  1391.0430     4.9680    39.9523
         TOT.                     -222.511    5528.3040    31.0061    91.0656

 290.00  VIB.     0.5314D+03                  3537.2805    23.8723    24.6681
         ROT.     0.2142D+06                   864.4339     2.9808    27.3731
         INT.     0.1138D+09                  4401.7144    26.8531    52.0412
         TRA.     0.1222D+28                  1440.7231     4.9680    40.1266
         TOT.                     -222.196    5842.4375    31.8211    92.1679

 300.00  VIB.     0.6565D+03                  3780.0905    24.6900    25.4912
         ROT.     0.2254D+06                   894.2419     2.9808    27.4741
         INT.     0.1480D+09                  4674.3324    27.6708    52.9654
         TRA.     0.1285D+28                  1490.4032     4.9680    40.2951
         TOT.                     -221.874    6164.7356    32.6388    93.2604

 310.00  VIB.     0.8109D+03                  4031.0857    25.5091    26.3142
         ROT.     0.2367D+06                   924.0500     2.9808    27.5719
         INT.     0.1920D+09                  4955.1357    28.4899    53.8860
         TRA.     0.1350D+28                  1540.0833     4.9680    40.4580
         TOT.                     -221.544    6495.2190    33.4580    94.3440

 320.00  VIB.     0.1001D+04                  4290.2737    26.3284    27.1370
         ROT.     0.2483D+06                   953.8580     2.9808    27.6665
         INT.     0.2486D+09                  5244.1317    29.3092    54.8035
         TRA.     0.1416D+28                  1589.7634     4.9680    40.6157
         TOT.                     -221.205    6833.8951    34.2772    95.4192

 330.00  VIB.     0.1236D+04                  4557.6488    27.1464    27.9597
         ROT.     0.2600D+06                   983.6661     2.9808    27.7582
         INT.     0.3214D+09                  5541.3149    30.1272    55.7179
         TRA.     0.1483D+28                  1639.4435     4.9680    40.7686
         TOT.                     -220.858    7180.7585    35.0952    96.4865

 340.00  VIB.     0.1526D+04                  4833.1932    27.9620    28.7822
         ROT.     0.2719D+06                  1013.4742     2.9808    27.8472
         INT.     0.4149D+09                  5846.6673    30.9428    56.6294
         TRA.     0.1551D+28                  1689.1236     4.9680    40.9169
         TOT.                     -220.503    7535.7910    35.9108    97.5463

 350.00  VIB.     0.1883D+04                  5116.8766    28.7740    29.6045
         ROT.     0.2840D+06                  1043.2822     2.9808    27.9336
         INT.     0.5348D+09                  6160.1589    31.7548    57.5381
         TRA.     0.1620D+28                  1738.8037     4.9680    41.0609
         TOT.                     -220.140    7898.9626    36.7228    98.5990

 360.00  VIB.     0.2323D+04                  5408.6579    29.5814    30.4264
         ROT.     0.2963D+06                  1073.0903     2.9808    28.0176
         INT.     0.6883D+09                  6481.7482    32.5622    58.4440
         TRA.     0.1690D+28                  1788.4838     4.9680    41.2009
         TOT.                     -219.769    8270.2320    37.5302    99.6448

 370.00  VIB.     0.2866D+04                  5708.4855    30.3831    31.2478
         ROT.     0.3087D+06                  1102.8984     2.9808    28.0993
         INT.     0.8847D+09                  6811.3838    33.3639    59.3471
         TRA.     0.1761D+28                  1838.1639     4.9680    41.3370
         TOT.                     -219.389    8649.5478    38.3319   100.6841

 380.00  VIB.     0.3535D+04                  6016.2984    31.1783    32.0687
         ROT.     0.3213D+06                  1132.7064     2.9808    28.1788
         INT.     0.1136D+10                  7149.0048    34.1591    60.2474
         TRA.     0.1832D+28                  1887.8440     4.9680    41.4695
         TOT.                     -219.002    9036.8488    39.1271   101.7169

 390.00  VIB.     0.4359D+04                  6332.0273    31.9662    32.8887
         ROT.     0.3341D+06                  1162.5145     2.9808    28.2562
         INT.     0.1456D+10                  7494.5417    34.9470    61.1449
         TRA.     0.1905D+28                  1937.5242     4.9680    41.5985
         TOT.                     -218.607    9432.0659    39.9150   102.7434

 400.00  VIB.     0.5374D+04                  6655.5954    32.7461    33.7079
         ROT.     0.3470D+06                  1192.3226     2.9808    28.3317
         INT.     0.1865D+10                  7847.9180    35.7269    62.0396
         TRA.     0.1979D+28                  1987.2043     4.9680    41.7243
         TOT.                     -218.204    9835.1223    40.6949   103.7638

   *: NOTE: HEATS OF FORMATION ARE RELATIVE TO THE
            ELEMENTS IN THEIR STANDARD STATE AT 298K
              (=  Standard Enthalpy of Formation).

            Hvib:  Zero-point energy is not included.
                   frequencies of less than zero cm-1 are not included.
            Hrot = (3/2)RT
            Htra = (3/2)RT + pV = (5/2)RT

            Heat capacity is Cp, not Cv

          For more information, see: HTTP://OpenMOPAC.net/Manual/thermochemistry.html


           FORCE CONSTANT IN CARTESIAN COORDINATES (Millidynes/A)

    ATOM   CHEMICAL       X               Y               Z
   NUMBER   SYMBOL  FORCE CONSTANT  FORCE CONSTANT  FORCE CONSTANT

      1       C        7.564388        6.637591        5.975762
      2       C       12.187160       13.434436        3.021792
      3       H        1.293593        3.533927        0.547116
      4       H        1.276046        1.388865        2.684335
      5       H        1.270819        1.262337        2.816089
      6       O        8.373522        9.262998        0.440599
      7       O        8.667272        7.197769        0.868962
      8       H        3.293589        1.064576        0.593334
      9       C       12.187160       13.434436        3.021792
     10       C        7.564388        6.637591        5.975762
     11       O        8.373522        9.262998        0.440599
     12       O        8.667272        7.197769        0.868962
     13       H        1.293593        3.533927        0.547116
     14       H        1.270819        1.262337        2.816089
     15       H        1.276046        1.388865        2.684335
     16       H        3.293589        1.064576        0.593334

 **********************
 *                    *
 * JOB ENDED NORMALLY *
 *                    *
 **********************



 TOTAL JOB TIME:            17.55 SECONDS

 == MOPAC DONE ==
