 *******************************************************************************
 **                                                                           **
 **                              MOPAC v22.1.0                                **
 **                                                                           **
 *******************************************************************************
 **          Digital Object Identifier (DOI): 10.5281/zenodo.6511958          **
 **    Visit the DOI location for information on how to cite this program.    **
 *******************************************************************************

                              PM7 CALCULATION RESULTS

 *******************************************************************************
 *  CALCULATION DONE:                                Sun Dec 24 15:09:33 2023  *
 *  PM7        - The PM7 Hamiltonian to be used
 *  SINGLET    - SPIN STATE DEFINED AS A SINGLET
 *
 *
 *
 *                 CHARGE ON SYSTEM = 0
 *
 *
 *
 *  PRECISE    - TIGHTER CRITERIA TO BE USED
 *  BFGS       - USE THE BFGS GEOMETRY OPTIMIZER
 *  T=         - A TIME OF 172800.0 SECONDS REQUESTED
 *  DUMP=N     - RESTART FILE WRITTEN EVERY 7200.0 SECONDS REQUESTED
 *  LARGE      - EXPANDED OUTPUT TO BE PRINTED
 *******************************************************************************
 LARGE CHARGE=0 SINGLET  PM7 BFGS PRECISE
 dimer  kyseliny octovej

   ATOM   CHEMICAL          X               Y               Z
  NUMBER   SYMBOL      (ANGSTROMS)     (ANGSTROMS)     (ANGSTROMS)
 
     1       C         -7.66214000  *   1.61962000  *  -0.12696000  *
     2       C         -6.20780000  *   1.87409000  *   0.10046000  *
     3       H         -8.05689000  *   2.36995000  *  -0.81787000  *
     4       H         -8.20397000  *   1.69630000  *   0.81890000  *
     5       H         -7.80040000  *   0.63055000  *  -0.57061000  *
     6       O         -5.55213000  *   2.78166000  *  -0.39180000  *
     7       O         -5.66298000  *   0.97123000  *   0.93663000  *
     8       H         -4.70372000  *   1.20958000  *   1.03461000  *
     9       C         -2.53767000  *   2.74073000  *   0.51080000  *
    10       C         -1.08373000  *   2.99627000  *   0.73964000  *
    11       O         -3.19327000  *   1.83297000  *   1.00281000  *
    12       O         -3.08261000  *   3.64391000  *  -0.32495000  *
    13       H         -0.68640000  *   2.23917000  *   1.42162000  *
    14       H         -0.94757000  *   3.98084000  *   1.19376000  *
    15       H         -0.54250000  *   2.93108000  *  -0.20745000  *
    16       H         -4.04178000  *   3.40531000  *  -0.42326000  *
 


          CARTESIAN COORDINATES 

    NO.       ATOM           X           Y           Z

     1         C         -7.6621      1.6196     -0.1270
     2         C         -6.2078      1.8741      0.1005
     3         H         -8.0569      2.3700     -0.8179
     4         H         -8.2040      1.6963      0.8189
     5         H         -7.8004      0.6306     -0.5706
     6         O         -5.5521      2.7817     -0.3918
     7         O         -5.6630      0.9712      0.9366
     8         H         -4.7037      1.2096      1.0346
     9         C         -2.5377      2.7407      0.5108
    10         C         -1.0837      2.9963      0.7396
    11         O         -3.1933      1.8330      1.0028
    12         O         -3.0826      3.6439     -0.3250
    13         H         -0.6864      2.2392      1.4216
    14         H         -0.9476      3.9808      1.1938
    15         H         -0.5425      2.9311     -0.2075
    16         H         -4.0418      3.4053     -0.4233

 General Reference for PM7:
 "Optimization of Parameters for Semiempirical Methods VI: More Modifications to the 
 NDDO Approximations and Re-optimization of Parameters", J. J. P. Stewart, J. Mol. Mod., 1:32, 19 (2013)
 https://link.springer.com/article/10.1007/s00894-012-1667-x

           Empirical Formula: C4 H8 O4  =    16 atoms



      MOLECULAR POINT GROUP   :   C2h 


 SINGLET STATE CALCULATION


      RHF CALCULATION, NO. OF DOUBLY OCCUPIED LEVELS = 24


          Geometry optimization using BFGS
 CYCLE:     1 TIME:   0.066 TIME LEFT:  2.00D  GRAD.:    64.074 HEAT: -217.9448
 CYCLE:     2 TIME:   0.031 TIME LEFT:  2.00D  GRAD.:    45.996 HEAT: -218.3915
 CYCLE:     3 TIME:   0.035 TIME LEFT:  2.00D  GRAD.:    29.091 HEAT: -218.7421
 CYCLE:     4 TIME:   0.031 TIME LEFT:  2.00D  GRAD.:    15.292 HEAT: -219.0231
 CYCLE:     5 TIME:   0.031 TIME LEFT:  2.00D  GRAD.:    18.012 HEAT: -219.1593
 CYCLE:     6 TIME:   0.047 TIME LEFT:  2.00D  GRAD.:    35.934 HEAT: -219.7878
 CYCLE:     7 TIME:   0.031 TIME LEFT:  2.00D  GRAD.:    18.481 HEAT: -220.2285
 CYCLE:     8 TIME:   0.035 TIME LEFT:  2.00D  GRAD.:    21.299 HEAT: -220.4828
 CYCLE:     9 TIME:   0.035 TIME LEFT:  2.00D  GRAD.:    29.780 HEAT: -220.5791
 CYCLE:    10 TIME:   0.035 TIME LEFT:  2.00D  GRAD.:    14.828 HEAT: -220.8355
 CYCLE:    11 TIME:   0.039 TIME LEFT:  2.00D  GRAD.:    15.315 HEAT: -221.0943
 CYCLE:    12 TIME:   0.031 TIME LEFT:  2.00D  GRAD.:    14.427 HEAT: -221.2007
 CYCLE:    13 TIME:   0.031 TIME LEFT:  2.00D  GRAD.:    10.960 HEAT: -221.3140
 CYCLE:    14 TIME:   0.031 TIME LEFT:  2.00D  GRAD.:    12.051 HEAT: -221.4060
 CYCLE:    15 TIME:   0.039 TIME LEFT:  2.00D  GRAD.:    14.645 HEAT: -221.5938
 CYCLE:    16 TIME:   0.035 TIME LEFT:  2.00D  GRAD.:    10.972 HEAT: -221.7407
 CYCLE:    17 TIME:   0.031 TIME LEFT:  2.00D  GRAD.:     6.058 HEAT: -221.8215
 CYCLE:    18 TIME:   0.031 TIME LEFT:  2.00D  GRAD.:     8.073 HEAT: -221.8457
 CYCLE:    19 TIME:   0.039 TIME LEFT:  2.00D  GRAD.:     5.295 HEAT: -221.8942
 CYCLE:    20 TIME:   0.031 TIME LEFT:  2.00D  GRAD.:     3.198 HEAT: -221.9231
 CYCLE:    21 TIME:   0.031 TIME LEFT:  2.00D  GRAD.:     2.279 HEAT: -221.9370
 CYCLE:    22 TIME:   0.031 TIME LEFT:  2.00D  GRAD.:     1.854 HEAT: -221.9427
 TEST ON GRADIENT SATISFIED
                    HOWEVER, A COMPONENT OF GRADIENT IS LARGER THAN  0.20

 CYCLE:    23 TIME:   0.039 TIME LEFT:  2.00D  GRAD.:     1.352 HEAT: -221.9432
 TEST ON GRADIENT SATISFIED
                    HOWEVER, A COMPONENT OF GRADIENT IS LARGER THAN  0.20

 CYCLE:    24 TIME:   0.031 TIME LEFT:  2.00D  GRAD.:     0.850 HEAT: -221.9446
 TEST ON GRADIENT SATISFIED
                    HOWEVER, A COMPONENT OF GRADIENT IS LARGER THAN  0.20

 CYCLE:    25 TIME:   0.039 TIME LEFT:  2.00D  GRAD.:     1.187 HEAT: -221.9449
 TEST ON GRADIENT SATISFIED
                    HOWEVER, A COMPONENT OF GRADIENT IS LARGER THAN  0.20

 CYCLE:    26 TIME:   0.047 TIME LEFT:  2.00D  GRAD.:     1.183 HEAT: -221.9450
 TEST ON GRADIENT SATISFIED
                    HOWEVER, A COMPONENT OF GRADIENT IS LARGER THAN  0.20

           THERE HAVE BEEN 3 ATTEMPTS TO REDUCE THE GRADIENT.
           DURING THESE ATTEMPTS THE ENERGY DROPPED BY LESS THAN 0.0 KCAL/MOLE
           FURTHER CALCULATION IS NOT JUSTIFIED AT THIS TIME.

 -------------------------------------------------------------------------------
 LARGE CHARGE=0 SINGLET  PM7 BFGS PRECISE
 dimer  kyseliny octovej



     GRADIENT TEST NOT PASSED, BUT FURTHER WORK NOT JUSTIFIED 
     SCF FIELD WAS ACHIEVED                                   


                              PM7 CALCULATION
                                                       MOPAC v22.1.0 Windows
                                                       Sun Dec 24 15:09:34 2023




          FINAL HEAT OF FORMATION =       -221.94505 KCAL/MOL =    -928.61810 KJ/MOL


          COSMO AREA              =        158.01 SQUARE ANGSTROMS
          COSMO VOLUME            =        142.74 CUBIC ANGSTROMS

          GRADIENT NORM           =          1.17140          =       0.29285 PER ATOM
          IONIZATION POTENTIAL    =         11.310085 EV
          HOMO LUMO ENERGIES (EV) =        -11.310  0.812
          NO. OF FILLED LEVELS    =         24
          MOLECULAR WEIGHT        =        120.1048         POINT GROUP:  C2h 

          MOLECULAR DIMENSIONS (Angstroms)

            Atom       Atom       Distance
            H    13    H     3     8.01962
            H     4    H    15     3.45397
            H    14    H     5     3.03543


          SCF CALCULATIONS        =         41
 
          WALL-CLOCK TIME         =      1.145 SECONDS
          COMPUTATION TIME        =      5.953 SECONDS




   ATOM   CHEMICAL          X               Y               Z
  NUMBER   SYMBOL      (ANGSTROMS)     (ANGSTROMS)     (ANGSTROMS)
 
     1       C         -7.70183642  *   1.56983976  *  -0.12114060  *
     2       C         -6.26922832  *   1.94063430  *   0.02356161  *
     3       H         -8.23340691  *   2.27725810  *  -0.77752732  *
     4       H         -8.21375788  *   1.55458987  *   0.85537993  *
     5       H         -7.80941642  *   0.55904586  *  -0.54878329  *
     6       O         -5.70919004  *   2.85533358  *  -0.55353518  *
     7       O         -5.62328149  *   1.14782651  *   0.87508196  *
     8       H         -4.62872082  *   1.36580206  *   1.00363711  *
     9       C         -2.47634249  *   2.67591813  *   0.58877205  *
    10       C         -1.04365837  *   3.04628256  *   0.73342996  *
    11       O         -3.03565886  *   1.75972663  *   1.16420715  *
    12       O         -3.12264790  *   3.46944020  *  -0.26171234  *
    13       H         -0.51014931  *   2.33293718  *   1.38175664  *
    14       H         -0.93551065  *   4.05285555  *   1.17066420  *
    15       H         -0.53441341  *   3.07131202  *  -0.24427814  *
    16       H         -4.11734495  *   3.25281726  *  -0.38950681  *

                             CARTESIAN COORDINATES

   1    C       -7.701836415     1.569839762    -0.121140597
   2    C       -6.269228320     1.940634297     0.023561615
   3    H       -8.233406905     2.277258095    -0.777527317
   4    H       -8.213757879     1.554589868     0.855379929
   5    H       -7.809416423     0.559045864    -0.548783286
   6    O       -5.709190042     2.855333582    -0.553535184
   7    O       -5.623281488     1.147826508     0.875081960
   8    H       -4.628720821     1.365802064     1.003637109
   9    C       -2.476342492     2.675918129     0.588772046
  10    C       -1.043658375     3.046282558     0.733429956
  11    O       -3.035658863     1.759726628     1.164207152
  12    O       -3.122647904     3.469440203    -0.261712343
  13    H       -0.510149313     2.332937185     1.381756644
  14    H       -0.935510653     4.052855555     1.170664200
  15    H       -0.534413413     3.071312020    -0.244278137
  16    H       -4.117344951     3.252817263    -0.389506814


           Empirical Formula: C4 H8 O4  =    16 atoms



      MOLECULAR POINT GROUP   :   C2h 


                  EIGENVALUES  
 -31.69362 -31.25330 -29.90689 -29.66402 -27.04476 -26.70250 -21.10760 -20.67267
 -18.38840 -16.95762 -16.55066 -16.28963 -16.25160 -16.13919 -14.36908 -14.34092
 -13.89093 -13.79060 -13.76765 -13.05872 -12.18431 -12.13823 -11.61088 -11.31008
   0.81207   0.81501   1.91824   2.24792   3.15363   3.60981   4.13011   4.51558
   4.84046   4.84063   4.97176   5.17503   5.52782   6.02034   6.07001   6.40101


              NET ATOMIC CHARGES AND DIPOLE CONTRIBUTIONS

  ATOM NO.   TYPE          CHARGE      No. of ELECS.   s-Pop       p-Pop       
    1          C          -0.505678        4.5057     1.05982     3.44586
    2          C           0.708649        3.2914     1.10601     2.18534
    3          H           0.187113        0.8129     0.81289
    4          H           0.190142        0.8099     0.80986
    5          H           0.190130        0.8099     0.80987
    6          O          -0.610424        6.6104     1.87106     4.73937
    7          O          -0.567911        6.5679     1.83790     4.73001
    8          H           0.407949        0.5921     0.59205
    9          C           0.708704        3.2913     1.10600     2.18530
   10          C          -0.505670        4.5057     1.05981     3.44586
   11          O          -0.610391        6.6104     1.87106     4.73933
   12          O          -0.567977        6.5680     1.83775     4.73023
   13          H           0.187141        0.8129     0.81286
   14          H           0.190080        0.8099     0.80992
   15          H           0.190182        0.8098     0.80982
   16          H           0.407963        0.5920     0.59204
 DIPOLE           X         Y         Z       TOTAL
 POINT-CHG.    -0.001     0.006     0.006     0.008
 HYBRID        -0.000     0.001     0.000     0.001
 SUM           -0.002     0.006     0.007     0.009


          ATOMIC ORBITAL ELECTRON POPULATIONS

     Atom    s        px        py        pz   
    1  C   1.05982   1.04049   1.19796   1.20741
    2  C   1.10601   0.83163   0.69230   0.66141
    3  H   0.81289
    4  H   0.80986
    5  H   0.80987
    6  O   1.87106   1.73296   1.43278   1.57363
    7  O   1.83790   1.46707   1.62454   1.63841
    8  H   0.59205
    9  C   1.10600   0.83160   0.69245   0.66125
   10  C   1.05981   1.04049   1.19792   1.20745
   11  O   1.87106   1.73328   1.43203   1.57402
   12  O   1.83775   1.46681   1.62471   1.63870
   13  H   0.81286
   14  H   0.80992
   15  H   0.80982
   16  H   0.59204
 *******************************************************************************
 **                                                                           **
 **                              MOPAC v22.1.0                                **
 **                                                                           **
 *******************************************************************************
 **          Digital Object Identifier (DOI): 10.5281/zenodo.6511958          **
 **    Visit the DOI location for information on how to cite this program.    **
 *******************************************************************************

                              PM7 CALCULATION RESULTS

 *******************************************************************************
 *  CALCULATION DONE:                                Sun Dec 24 15:09:34 2023  *
 *  PM7        - The PM7 Hamiltonian to be used
 *  OLDGEO     - PREVIOUS GEOMETRY TO BE USED
 *  PRECISE    - TIGHTER CRITERIA TO BE USED
 *  T=         - A TIME OF 172800.0 SECONDS REQUESTED
 *  DUMP=N     - RESTART FILE WRITTEN EVERY 7200.0 SECONDS REQUESTED
 *  THERMO     - THERMODYNAMIC QUANTITIES TO BE CALCULATED
 *******************************************************************************
OLDGEO PRECISE PM7 THERMO
 dimer kyseliny octovej

   ATOM   CHEMICAL          X               Y               Z
  NUMBER   SYMBOL      (ANGSTROMS)     (ANGSTROMS)     (ANGSTROMS)
 
     1       C         -7.70183642  *   1.56983976  *  -0.12114060  *
     2       C         -6.26922832  *   1.94063430  *   0.02356161  *
     3       H         -8.23340691  *   2.27725810  *  -0.77752732  *
     4       H         -8.21375788  *   1.55458987  *   0.85537993  *
     5       H         -7.80941642  *   0.55904586  *  -0.54878329  *
     6       O         -5.70919004  *   2.85533358  *  -0.55353518  *
     7       O         -5.62328149  *   1.14782651  *   0.87508196  *
     8       H         -4.62872082  *   1.36580206  *   1.00363711  *
     9       C         -2.47634249  *   2.67591813  *   0.58877205  *
    10       C         -1.04365837  *   3.04628256  *   0.73342996  *
    11       O         -3.03565886  *   1.75972663  *   1.16420715  *
    12       O         -3.12264790  *   3.46944020  *  -0.26171234  *
    13       H         -0.51014931  *   2.33293718  *   1.38175664  *
    14       H         -0.93551065  *   4.05285555  *   1.17066420  *
    15       H         -0.53441341  *   3.07131202  *  -0.24427814  *
    16       H         -4.11734495  *   3.25281726  *  -0.38950681  *
 


          CARTESIAN COORDINATES 

    NO.       ATOM           X           Y           Z

     1         C         -7.7018      1.5698     -0.1211
     2         C         -6.2692      1.9406      0.0236
     3         H         -8.2334      2.2773     -0.7775
     4         H         -8.2138      1.5546      0.8554
     5         H         -7.8094      0.5590     -0.5488
     6         O         -5.7092      2.8553     -0.5535
     7         O         -5.6233      1.1478      0.8751
     8         H         -4.6287      1.3658      1.0036
     9         C         -2.4763      2.6759      0.5888
    10         C         -1.0437      3.0463      0.7334
    11         O         -3.0357      1.7597      1.1642
    12         O         -3.1226      3.4694     -0.2617
    13         H         -0.5101      2.3329      1.3818
    14         H         -0.9355      4.0529      1.1707
    15         H         -0.5344      3.0713     -0.2443
    16         H         -4.1173      3.2528     -0.3895

 General Reference for PM7:
 "Optimization of Parameters for Semiempirical Methods VI: More Modifications to the 
 NDDO Approximations and Re-optimization of Parameters", J. J. P. Stewart, J. Mol. Mod., 1:32, 19 (2013)
 https://link.springer.com/article/10.1007/s00894-012-1667-x

           Empirical Formula: C4 H8 O4  =    16 atoms



      MOLECULAR POINT GROUP   :   C2h 


      RHF CALCULATION, NO. OF DOUBLY OCCUPIED LEVELS = 24



          HEAT OF FORMATION =    -221.945052 KCALS/MOLE


          CARTESIAN COORDINATE DERIVATIVES

   NUMBER  ATOM         X            Y            Z

     1       C     -0.011005    -0.035761    -0.091302
     2       C      0.036455     0.074404     0.399359
     3       H     -0.028193     0.001395     0.030643
     4       H     -0.045236     0.020186    -0.016947
     5       H      0.000239    -0.020140     0.036269
     6       O      0.129947    -0.020182    -0.059896
     7       O     -0.084224    -0.076523    -0.584014
     8       H      0.034171     0.069965     0.602756
     9       C      0.011064     0.023260    -0.220670
    10       C      0.009609    -0.011159     0.084547
    11       O      0.034742    -0.006389    -0.104948
    12       O     -0.163472    -0.024381     0.395570
    13       H      0.007690     0.009094    -0.021467
    14       H      0.009395     0.008603    -0.048241
    15       H      0.001143    -0.019733     0.025582
    16       H      0.065597     0.007942    -0.426607
 


          GRADIENT NORM =   1.17040


                              **** WARNING ****

           GRADIENT IS VERY LARGE FOR A THERMO CALCULATION
           RESULTS ARE LIKELY TO BE INACCURATE IF THERE ARE
           ANY LOW-LYING VIBRATIONS (LESS THAN ABOUT 400CM-1)
           GRADIENT NORM SHOULD BE LESS THAN ABOUT 1.0 FOR THERMO
           TO GIVE ACCURATE RESULTS


          TIME FOR SCF CALCULATION =    0.01

          TIME FOR DERIVATIVES     =    0.03

          MOLECULAR WEIGHT =  120.10



          ROTATIONAL CONSTANTS IN CM(-1)

          A =    0.19075161   B =    0.02895659   C =    0.02537882



           PRINCIPAL MOMENTS OF INERTIA IN UNITS OF 10**(-40)*GRAM-CM**2

          A =      146.7498   B =      966.7144   C =     1102.9968


          ORIENTATION OF MOLECULE IN FORCE CALCULATION

    NO.       ATOM         X         Y         Z

     1          C      -3.4333    0.1517   -0.0024
     2          C      -1.9464    0.1517   -0.0024
     3          H      -3.8329    1.1784   -0.0024
     4          H      -3.8353   -0.3746    0.8793
     5          H      -3.8306   -0.3703   -0.8888
     6          O      -1.2349    1.1379   -0.0695
     7          O      -1.4389   -1.0758    0.0782
     8          H      -0.4138   -1.1237    0.0781
     9          C       1.9464   -0.1515    0.0027
    10          C       3.4332   -0.1519    0.0024
    11          O       1.2350   -1.1380    0.0675
    12          O       1.4388    1.0760   -0.0766
    13          H       3.8325   -1.1787   -0.0078
    14          H       3.8310    0.3610    0.8939
    15          H       3.8350    0.3832   -0.8741
    16          H       0.4140    1.1245   -0.0751


    FIRST DERIVATIVES WILL BE USED IN THE CALCULATION OF SECOND DERIVATIVES

          ESTIMATED TIME TO COMPLETE CALCULATION =        7.50 SECONDS

    FOR POINT-GROUP C2h  THERE ARE   4 UNIQUE SYMMETRY FUNCTIONS.

 STEP:   1 TIME =     0.16 SECS, INTEGRAL =      0.16 TIME LEFT: 172799.80
 STEP:   2 TIME =     0.16 SECS, INTEGRAL =      0.32 TIME LEFT: 172799.64
 STEP:   3 TIME =     0.16 SECS, INTEGRAL =      0.48 TIME LEFT: 172799.48
 STEP:   4 TIME =     0.16 SECS, INTEGRAL =      0.64 TIME LEFT: 172799.32
 STEP:   5 TIME =     0.17 SECS, INTEGRAL =      0.80 TIME LEFT: 172799.16
 STEP:   6 TIME =     0.18 SECS, INTEGRAL =      0.98 TIME LEFT: 172798.98
 STEP:   7 TIME =     0.16 SECS, INTEGRAL =      1.14 TIME LEFT: 172798.82
 STEP:   8 TIME =     0.16 SECS, INTEGRAL =      1.30 TIME LEFT: 172798.66
 STEP:   9 TIME =     0.16 SECS, INTEGRAL =      1.46 TIME LEFT: 172798.50
 STEP:  10 TIME =     0.16 SECS, INTEGRAL =      1.62 TIME LEFT: 172798.34
 STEP:  11 TIME =     0.16 SECS, INTEGRAL =      1.79 TIME LEFT: 172798.18
 STEP:  12 TIME =     0.16 SECS, INTEGRAL =      1.94 TIME LEFT: 172798.02
 STEP:  13                       INTEGRAL =      1.94 TIME LEFT: 172798.02
 STEP:  14                       INTEGRAL =      1.94 TIME LEFT: 172798.02
 STEP:  15                       INTEGRAL =      1.94 TIME LEFT: 172798.02
 STEP:  16 TIME =     0.16 SECS, INTEGRAL =      2.10 TIME LEFT: 172797.86
 STEP:  17 TIME =     0.16 SECS, INTEGRAL =      2.26 TIME LEFT: 172797.70
 STEP:  18 TIME =     0.17 SECS, INTEGRAL =      2.43 TIME LEFT: 172797.53
 STEP:  19 TIME =     0.16 SECS, INTEGRAL =      2.59 TIME LEFT: 172797.37
 STEP:  20 TIME =     0.16 SECS, INTEGRAL =      2.75 TIME LEFT: 172797.21
 STEP:  21 TIME =     0.17 SECS, INTEGRAL =      2.92 TIME LEFT: 172797.04
 STEP:  22 TIME =     0.16 SECS, INTEGRAL =      3.08 TIME LEFT: 172796.88
 STEP:  23 TIME =     0.16 SECS, INTEGRAL =      3.24 TIME LEFT: 172796.72
 STEP:  24 TIME =     0.17 SECS, INTEGRAL =      3.41 TIME LEFT: 172796.55
 STEP:  25                       INTEGRAL =      3.41 TIME LEFT: 172796.55
 STEP:  26                       INTEGRAL =      3.41 TIME LEFT: 172796.55
 STEP:  27                       INTEGRAL =      3.41 TIME LEFT: 172796.55
 STEP:  28                       INTEGRAL =      3.41 TIME LEFT: 172796.55
 STEP:  29                       INTEGRAL =      3.41 TIME LEFT: 172796.55
 STEP:  30                       INTEGRAL =      3.41 TIME LEFT: 172796.55
 STEP:  31                       INTEGRAL =      3.41 TIME LEFT: 172796.55
 STEP:  32                       INTEGRAL =      3.41 TIME LEFT: 172796.55
 STEP:  33                       INTEGRAL =      3.41 TIME LEFT: 172796.55
 STEP:  34                       INTEGRAL =      3.41 TIME LEFT: 172796.55
 STEP:  35                       INTEGRAL =      3.41 TIME LEFT: 172796.55
 STEP:  36                       INTEGRAL =      3.41 TIME LEFT: 172796.55
 STEP:  37                       INTEGRAL =      3.41 TIME LEFT: 172796.55
 STEP:  38                       INTEGRAL =      3.41 TIME LEFT: 172796.55
 STEP:  39                       INTEGRAL =      3.41 TIME LEFT: 172796.55
 STEP:  40                       INTEGRAL =      3.41 TIME LEFT: 172796.55
 STEP:  41                       INTEGRAL =      3.41 TIME LEFT: 172796.55
 STEP:  42                       INTEGRAL =      3.41 TIME LEFT: 172796.55
 STEP:  43                       INTEGRAL =      3.41 TIME LEFT: 172796.55
 STEP:  44                       INTEGRAL =      3.41 TIME LEFT: 172796.55
 STEP:  45                       INTEGRAL =      3.41 TIME LEFT: 172796.55
 STEP:  46                       INTEGRAL =      3.41 TIME LEFT: 172796.55
 STEP:  47                       INTEGRAL =      3.41 TIME LEFT: 172796.55
 STEP:  48                       INTEGRAL =      3.41 TIME LEFT: 172796.55

(To convert to Hartree/Bohr^2, multiply by (10^(-21) x N x a0^2)/(4.184 x 627.51) =  0.0642)


           FORCE MATRIX IN MILLIDYNES/ANGSTROM


                  C  1       C  2       H  3       H  4       H  5       O  6
 ------------------------------------------------------------------------------
     C    1  11.701100
     C    2   3.758999  18.793595
     H    3   3.396763   0.782053   4.187129
     H    4   3.374499   0.786222   0.443588   4.166677
     H    5   3.370167   0.789379   0.443763   0.451598   4.166677
     O    6   1.143103  11.153814   0.052720   0.060518   0.060757  14.593025
     O    7   1.118068   6.038454   0.063649   0.048999   0.049092   1.893649
     H    8   0.149258   1.435031   0.022352   0.023012   0.022841   0.335508
     C    9   0.083766   0.534705   0.011756   0.011251   0.011251   0.449454
     C   10   0.021963   0.083824   0.004605   0.004753   0.004753   0.079842
     O   11   0.079938   0.448956   0.009151   0.013206   0.013206   0.249302
     O   12   0.078395   0.444652   0.013141   0.009889   0.009889   3.453065
     H   13   0.004587   0.011760   0.000777   0.001039   0.001039   0.009148
     H   14   0.004709   0.010725   0.001045   0.001093   0.000937   0.012642
     H   15   0.004741   0.011324   0.001044   0.000937   0.001093   0.013215
     H   16   0.113925   0.671730   0.021439   0.014405   0.014405   0.519073


                  O  7       H  8       C  9       C 10       O 11       O 12
 ------------------------------------------------------------------------------
     O    7  11.647932
     H    8   3.115008   3.589234
     C    9   0.446517   0.654323  18.793595
     C   10   0.078701   0.114184   3.758999  11.701100
     O   11   3.504032   0.519947  11.153814   1.143103  14.593025
     O   12   0.271680   0.370673   6.038454   1.118068   1.893649  11.647932
     H   13   0.013110   0.021398   0.782053   3.396763   0.052720   0.063649
     H   14   0.009874   0.014711   0.786222   3.374499   0.060518   0.048999
     H   15   0.009918   0.014380   0.789379   3.370167   0.060757   0.049092
     H   16   0.396293   0.426739   1.435031   0.149258   0.335508   3.115008


                  H 13       H 14       H 15       H 16
 ------------------------------------------------------
     H   13   4.187129
     H   14   0.443588   4.166677
     H   15   0.443763   0.451598   4.166677
     H   16   0.022352   0.023012   0.022841   3.589234


          HEAT OF FORMATION =    -221.945052 KCALS/MOLE

          ZERO POINT ENERGY      72.710 KCAL/MOL

         NOTE: SYSTEM IS NOT A GROUND STATE, THEREFORE ZERO POINT
         ENERGY IS NOT MEANINGFULL. ZERO POINT ENERGY PRINTED
         DOES NOT INCLUDE THE  2 IMAGINARY FREQUENCIES


           NORMAL COORDINATE ANALYSIS (Total motion = 1 Angstrom)


   Root No.       1         2         3         4         5         6         7         8

                 1 Au      1 Bg      2 Au      1 Ag      1 Bu      2 Bg      3 Au      2 Ag  

                -260.1    -250.5      85.8     109.5     126.1     141.4     168.9     350.1
  
           1    0.0000    0.0000   -0.0002   -0.0073   -0.0008    0.0002   -0.0001    0.0400
           2    0.0008    0.0005   -0.0049    0.0350    0.0590    0.0034   -0.0028   -0.0236
           3    0.0126    0.0075   -0.0745   -0.0022   -0.0039    0.0531   -0.0432    0.0015
           4   -0.0000   -0.0000   -0.0000   -0.0064   -0.0006   -0.0001    0.0000    0.0356
           5   -0.0004   -0.0006    0.0000   -0.0397   -0.0202   -0.0016    0.0004    0.0158
           6   -0.0054   -0.0098    0.0003    0.0024    0.0013   -0.0268    0.0055   -0.0011
           7    0.0005    0.0004   -0.0001    0.0563    0.0737   -0.0001   -0.0001   -0.0156
           8    0.0106    0.0099   -0.0028    0.0620    0.0918    0.0012   -0.0020   -0.0502
           9    0.1608    0.1494   -0.0428   -0.0043   -0.0062    0.0198   -0.0301    0.0035
          10    0.0304    0.0293   -0.0373   -0.0482   -0.0503    0.0457   -0.0325    0.0803
          11   -0.1429   -0.1376   -0.0529    0.0734    0.1063    0.0568   -0.0329   -0.0662
          12   -0.0457   -0.0485   -0.1142   -0.0019   -0.0036    0.0997   -0.0729    0.0003
          13   -0.0307   -0.0297    0.0366   -0.0485   -0.0503   -0.0448    0.0321    0.0803
          14    0.1357    0.1301    0.0375    0.0726    0.1059   -0.0436    0.0231   -0.0656
          15   -0.0639   -0.0660   -0.1204   -0.0067   -0.0100    0.1065   -0.0767    0.0080
          16   -0.0000   -0.0000    0.0002    0.0228    0.0071   -0.0002   -0.0002    0.0504
          17   -0.0003   -0.0012    0.0044   -0.0597   -0.0254   -0.0034   -0.0043    0.0017
          18   -0.0043   -0.0195    0.0675    0.0034    0.0017   -0.0551   -0.0656   -0.0002
          19   -0.0000    0.0000    0.0000   -0.0287   -0.0042   -0.0001    0.0003   -0.0335
          20   -0.0003    0.0004    0.0002   -0.0497   -0.0217   -0.0038    0.0066   -0.0129
          21   -0.0040    0.0050    0.0026    0.0033    0.0014   -0.0613    0.0999    0.0009
          22   -0.0000    0.0000    0.0001   -0.0250   -0.0035   -0.0000    0.0002   -0.0364
          23   -0.0004    0.0007    0.0032   -0.0350   -0.0183   -0.0022    0.0054   -0.0567
          24   -0.0061    0.0109    0.0492    0.0024    0.0012   -0.0364    0.0824    0.0038
          25   -0.0000    0.0000    0.0000    0.0064   -0.0006    0.0001    0.0000   -0.0356
          26   -0.0004    0.0006    0.0000    0.0397   -0.0202    0.0016    0.0004   -0.0158
          27   -0.0054    0.0098    0.0003   -0.0024    0.0013    0.0268    0.0055    0.0011
          28    0.0000   -0.0000   -0.0002    0.0073   -0.0008   -0.0002   -0.0001   -0.0400
          29    0.0008   -0.0005   -0.0049   -0.0350    0.0590   -0.0034   -0.0028    0.0236
          30    0.0126   -0.0075   -0.0745    0.0022   -0.0039   -0.0531   -0.0432   -0.0015
          31   -0.0000    0.0000    0.0002   -0.0228    0.0071    0.0002   -0.0002   -0.0504
          32   -0.0003    0.0012    0.0044    0.0597   -0.0254    0.0034   -0.0043   -0.0017
          33   -0.0043    0.0195    0.0675   -0.0034    0.0016    0.0551   -0.0655    0.0002
          34   -0.0000   -0.0000    0.0000    0.0287   -0.0042    0.0001    0.0003    0.0335
          35   -0.0003   -0.0004    0.0002    0.0497   -0.0217    0.0038    0.0066    0.0129
          36   -0.0040   -0.0050    0.0026   -0.0033    0.0014    0.0613    0.0999   -0.0009
          37    0.0005   -0.0004   -0.0001   -0.0563    0.0737    0.0001   -0.0001    0.0156
          38    0.0106   -0.0099   -0.0028   -0.0620    0.0918   -0.0011   -0.0020    0.0502
          39    0.1609   -0.1493   -0.0428    0.0043   -0.0062   -0.0198   -0.0301   -0.0035
          40   -0.0307    0.0296    0.0366    0.0485   -0.0503    0.0448    0.0321   -0.0803
          41    0.1358   -0.1300    0.0375   -0.0726    0.1059    0.0437    0.0231    0.0656
          42   -0.0639    0.0659   -0.1204    0.0067   -0.0100   -0.1065   -0.0767   -0.0080
          43    0.0304   -0.0293   -0.0373    0.0482   -0.0503   -0.0457   -0.0325   -0.0803
          44   -0.1430    0.1375   -0.0529   -0.0734    0.1063   -0.0568   -0.0329    0.0662
          45   -0.0458    0.0485   -0.1142    0.0020   -0.0036   -0.0997   -0.0729   -0.0003
          46   -0.0000   -0.0000    0.0001    0.0250   -0.0035    0.0000    0.0002    0.0364
          47   -0.0004   -0.0007    0.0032    0.0350   -0.0183    0.0022    0.0054    0.0567
          48   -0.0061   -0.0109    0.0491   -0.0025    0.0012    0.0364    0.0824   -0.0038


   Root No.       9        10        11        12        13        14        15        16

                 3 Ag      3 Bg      4 Au      2 Bu      4 Ag      3 Bu      5 Au      5 Ag  

                 401.1     550.8     552.9     570.2     768.1     793.8     893.3     984.8
  
           1    0.0576    0.0000    0.0000    0.0522    0.0171    0.0020    0.0000   -0.0053
           2    0.0229   -0.0000    0.0000    0.0056   -0.0006    0.0190    0.0009   -0.0426
           3   -0.0018    0.0018    0.0001   -0.0005   -0.0001   -0.0012    0.0131    0.0025
           4    0.0508    0.0002    0.0002    0.0398   -0.0054   -0.0050    0.0000    0.0118
           5   -0.0275    0.0052    0.0049   -0.0026   -0.0105    0.0313    0.0007   -0.0015
           6    0.0016    0.0810    0.0744    0.0000    0.0007   -0.0020    0.0102   -0.0000
           7    0.1145   -0.0001   -0.0001    0.0568    0.0097   -0.0990   -0.0000    0.1412
           8    0.0487   -0.0019   -0.0015    0.0072   -0.0033   -0.0296   -0.0003    0.0297
           9   -0.0036   -0.0258   -0.0228   -0.0006    0.0001    0.0022   -0.0048   -0.0026
          10    0.0275   -0.1163   -0.1083    0.0573    0.0226    0.0623   -0.0545   -0.1025
          11    0.0521   -0.0202   -0.0209   -0.0004   -0.0103   -0.0490   -0.0028    0.0630
          12   -0.0020   -0.0656   -0.0636   -0.0009    0.0008   -0.0022   -0.0179    0.0024
          13    0.0275    0.1160    0.1079    0.0572    0.0226    0.0623    0.0544   -0.1028
          14    0.0518    0.0111    0.0124   -0.0004   -0.0103   -0.0483    0.0004    0.0622
          15   -0.0051   -0.0683   -0.0664    0.0008    0.0003    0.0082   -0.0184   -0.0105
          16   -0.0131   -0.0002   -0.0000   -0.0320    0.0754    0.0523   -0.0000    0.0131
          17    0.0192   -0.0022   -0.0012    0.0482   -0.0800   -0.0239   -0.0007    0.0102
          18   -0.0013   -0.0337   -0.0184   -0.0031    0.0050    0.0014   -0.0110   -0.0008
          19    0.0464   -0.0000   -0.0001   -0.0444    0.0710   -0.0480   -0.0001   -0.0092
          20   -0.0204   -0.0014   -0.0014   -0.0445    0.0795   -0.0024   -0.0016    0.0147
          21    0.0012   -0.0197   -0.0211    0.0031   -0.0055    0.0003   -0.0241   -0.0010
          22    0.0556   -0.0001   -0.0003   -0.0547    0.1071   -0.0590    0.0009   -0.0087
          23   -0.0317   -0.0045   -0.0071   -0.1007    0.1618   -0.0562    0.0211   -0.0243
          24    0.0020   -0.0674   -0.1077    0.0068   -0.0109    0.0038    0.3210    0.0016
          25   -0.0508   -0.0002    0.0002    0.0398    0.0054   -0.0050    0.0000   -0.0118
          26    0.0275   -0.0052    0.0049   -0.0026    0.0105    0.0313    0.0007    0.0015
          27   -0.0016   -0.0810    0.0745    0.0001   -0.0007   -0.0020    0.0102   -0.0000
          28   -0.0576    0.0000   -0.0000    0.0522   -0.0171    0.0020    0.0000    0.0053
          29   -0.0229    0.0000   -0.0000    0.0056    0.0006    0.0190    0.0009    0.0426
          30    0.0018   -0.0018    0.0001   -0.0005    0.0001   -0.0013    0.0131   -0.0025
          31    0.0131    0.0002   -0.0001   -0.0320   -0.0754    0.0523   -0.0000   -0.0131
          32   -0.0192    0.0023   -0.0012    0.0482    0.0800   -0.0239   -0.0007   -0.0102
          33    0.0013    0.0337   -0.0184   -0.0031   -0.0050    0.0014   -0.0110    0.0008
          34   -0.0464   -0.0000   -0.0001   -0.0444   -0.0710   -0.0480   -0.0001    0.0092
          35    0.0204    0.0013   -0.0014   -0.0445   -0.0795   -0.0024   -0.0016   -0.0147
          36   -0.0012    0.0197   -0.0211    0.0030    0.0055    0.0003   -0.0241    0.0010
          37   -0.1145    0.0002   -0.0001    0.0568   -0.0097   -0.0990   -0.0000   -0.1412
          38   -0.0487    0.0019   -0.0015    0.0072    0.0033   -0.0296   -0.0003   -0.0297
          39    0.0036    0.0258   -0.0228   -0.0006   -0.0001    0.0022   -0.0048    0.0026
          40   -0.0275   -0.1159    0.1080    0.0573   -0.0226    0.0623    0.0544    0.1029
          41   -0.0518   -0.0111    0.0124   -0.0003    0.0103   -0.0483    0.0004   -0.0622
          42    0.0051    0.0683   -0.0665    0.0007   -0.0003    0.0082   -0.0184    0.0105
          43   -0.0275    0.1163   -0.1084    0.0572   -0.0226    0.0623   -0.0545    0.1025
          44   -0.0521    0.0202   -0.0209   -0.0005    0.0103   -0.0490   -0.0028   -0.0630
          45    0.0020    0.0656   -0.0637   -0.0010   -0.0008   -0.0022   -0.0179   -0.0025
          46   -0.0556    0.0001   -0.0003   -0.0547   -0.1071   -0.0590    0.0009    0.0087
          47    0.0317    0.0044   -0.0071   -0.1008   -0.1618   -0.0562    0.0211    0.0243
          48   -0.0020    0.0674   -0.1078    0.0067    0.0109    0.0039    0.3210   -0.0016


   Root No.      17        18        19        20        21        22        23        24

                 4 Bu      5 Bu      4 Bg      6 Au      6 Ag      5 Bg      6 Bg      7 Au  

                1014.8    1020.7    1031.4    1048.6    1079.7    1172.0    1235.1    1235.5
  
           1    0.0153    0.0745    0.0001   -0.0001   -0.0698   -0.0000    0.0001   -0.0001
           2    0.0382   -0.0198    0.0019   -0.0022    0.0069   -0.0004    0.0018   -0.0018
           3   -0.0026    0.0011    0.0329   -0.0335   -0.0003   -0.0070    0.0270   -0.0273
           4   -0.0135   -0.0266   -0.0001    0.0001    0.0420    0.0001   -0.0000    0.0000
           5   -0.0101   -0.0107   -0.0026    0.0030    0.0039    0.0017   -0.0003    0.0003
           6    0.0007    0.0008   -0.0369    0.0461   -0.0004    0.0260   -0.0050    0.0050
           7   -0.1020    0.1714    0.0002   -0.0000   -0.1258   -0.0001   -0.0006    0.0007
           8   -0.0198    0.0331   -0.0000   -0.0005   -0.0269   -0.0012   -0.0151    0.0155
           9    0.0016   -0.0026    0.0027   -0.0081    0.0020   -0.0187   -0.2308    0.2362
          10    0.0994    0.0289   -0.1620    0.1666   -0.0499    0.0378    0.0362   -0.0369
          11   -0.0537    0.0151    0.0084   -0.0105    0.0047   -0.0103   -0.1018    0.1035
          12   -0.0020    0.0026   -0.0505    0.0514   -0.0003    0.0079   -0.0212    0.0216
          13    0.0994    0.0287    0.1615   -0.1664   -0.0499   -0.0377   -0.0362    0.0371
          14   -0.0530    0.0147   -0.0153    0.0172    0.0046    0.0112    0.0984   -0.0998
          15    0.0084   -0.0047   -0.0498    0.0505   -0.0001    0.0068   -0.0343    0.0347
          16   -0.0258   -0.0188   -0.0001   -0.0000    0.0427    0.0000    0.0000   -0.0000
          17   -0.0117   -0.0426    0.0003   -0.0006    0.0248   -0.0000    0.0001   -0.0001
          18    0.0008    0.0029    0.0055   -0.0085   -0.0018   -0.0006    0.0017   -0.0012
          19    0.0166   -0.0299    0.0000   -0.0000    0.0371   -0.0001   -0.0000   -0.0000
          20   -0.0052    0.0597    0.0000   -0.0006   -0.0306   -0.0014    0.0001   -0.0001
          21    0.0003   -0.0039    0.0012   -0.0097    0.0020   -0.0219    0.0007   -0.0008
          22    0.0276   -0.0273    0.0003    0.0001    0.0464    0.0010   -0.0001    0.0000
          23    0.0601    0.0303    0.0053    0.0029   -0.0398    0.0227   -0.0009    0.0003
          24   -0.0040   -0.0020    0.0808    0.0445    0.0026    0.3450   -0.0137    0.0050
          25   -0.0135   -0.0266    0.0001    0.0001   -0.0420   -0.0001    0.0000    0.0000
          26   -0.0101   -0.0107    0.0026    0.0030   -0.0039   -0.0017    0.0003    0.0003
          27    0.0007    0.0007    0.0369    0.0461    0.0004   -0.0260    0.0050    0.0050
          28    0.0153    0.0745   -0.0001   -0.0001    0.0698    0.0000   -0.0001   -0.0001
          29    0.0382   -0.0198   -0.0019   -0.0022   -0.0069    0.0004   -0.0018   -0.0018
          30   -0.0025    0.0011   -0.0329   -0.0335    0.0003    0.0070   -0.0271   -0.0273
          31   -0.0258   -0.0188    0.0000   -0.0000   -0.0427   -0.0000   -0.0000   -0.0000
          32   -0.0117   -0.0426   -0.0003   -0.0006   -0.0248    0.0000   -0.0001   -0.0001
          33    0.0008    0.0028   -0.0055   -0.0085    0.0018    0.0006   -0.0017   -0.0012
          34    0.0166   -0.0299   -0.0001   -0.0000   -0.0371    0.0001    0.0000   -0.0000
          35   -0.0052    0.0597    0.0000   -0.0006    0.0306    0.0014   -0.0001   -0.0001
          36    0.0003   -0.0038   -0.0012   -0.0097   -0.0020    0.0219   -0.0007   -0.0008
          37   -0.1020    0.1714   -0.0001   -0.0000    0.1258    0.0001    0.0006    0.0007
          38   -0.0198    0.0331    0.0000   -0.0005    0.0269    0.0012    0.0151    0.0155
          39    0.0016   -0.0027   -0.0027   -0.0081   -0.0020    0.0187    0.2308    0.2361
          40    0.0994    0.0289   -0.1615   -0.1663    0.0499    0.0377    0.0362    0.0371
          41   -0.0530    0.0146    0.0153    0.0172   -0.0046   -0.0112   -0.0985   -0.0998
          42    0.0084   -0.0047    0.0498    0.0505    0.0001   -0.0069    0.0343    0.0347
          43    0.0994    0.0287    0.1621    0.1666    0.0500   -0.0378   -0.0362   -0.0369
          44   -0.0537    0.0152   -0.0084   -0.0105   -0.0047    0.0103    0.1019    0.1035
          45   -0.0019    0.0025    0.0505    0.0513    0.0003   -0.0079    0.0212    0.0216
          46    0.0276   -0.0273   -0.0003    0.0001   -0.0464   -0.0010    0.0001    0.0000
          47    0.0601    0.0303   -0.0052    0.0029    0.0398   -0.0227    0.0009    0.0003
          48   -0.0040   -0.0018   -0.0808    0.0445   -0.0026   -0.3450    0.0137    0.0050


   Root No.      25        26        27        28        29        30        31        32

                 6 Bu      7 Ag      7 Bu      8 Ag      8 Bu      9 Ag      9 Bu     10 Ag  

                1246.0    1246.0    1293.6    1303.5    1352.4    1358.3    1455.8    1458.3
  
           1    0.0059    0.0091    0.0289    0.0298   -0.0307   -0.0267   -0.0144   -0.0085
           2   -0.0154   -0.0176   -0.0111   -0.0076   -0.0054   -0.0065    0.0073    0.0071
           3    0.0010    0.0012    0.0007    0.0004    0.0004    0.0005   -0.0004   -0.0004
           4    0.0006   -0.0013   -0.0306   -0.0298    0.0021   -0.0064    0.0663    0.0368
           5   -0.0007    0.0016    0.0219    0.0295    0.0002    0.0064   -0.0496   -0.0684
           6    0.0000   -0.0000   -0.0013   -0.0019   -0.0000   -0.0004    0.0031    0.0044
           7   -0.1043   -0.1159    0.0041   -0.0122    0.1266    0.1270   -0.0756   -0.0572
           8   -0.0538   -0.0603   -0.0115   -0.0148    0.0579    0.0579   -0.0346   -0.0258
           9    0.0038    0.0044    0.0008    0.0008   -0.0042   -0.0038    0.0025    0.0019
          10    0.0397    0.0439   -0.0509   -0.0676    0.1064    0.1014   -0.0312   -0.0027
          11    0.1312    0.1512    0.0146    0.0104   -0.0028   -0.0015   -0.0110   -0.0110
          12    0.0862    0.0978   -0.0171   -0.0287    0.0573    0.0562   -0.0252   -0.0084
          13    0.0392    0.0433   -0.0508   -0.0674    0.1060    0.1012   -0.0311   -0.0027
          14    0.1188    0.1370    0.0167    0.0140   -0.0104   -0.0084   -0.0076   -0.0099
          15   -0.1029   -0.1167    0.0153    0.0275   -0.0570   -0.0564    0.0266    0.0100
          16   -0.0020   -0.0018    0.0139    0.0137    0.0049    0.0047    0.0021   -0.0015
          17   -0.0020   -0.0022    0.0095    0.0122    0.0019    0.0048   -0.0017    0.0214
          18    0.0001    0.0001   -0.0007   -0.0010   -0.0002   -0.0000    0.0001   -0.0014
          19   -0.0013   -0.0014   -0.0085    0.0088   -0.0056    0.0015   -0.0340   -0.0394
          20    0.0016    0.0003   -0.0348   -0.0369   -0.0053   -0.0111    0.0250    0.0176
          21   -0.0001    0.0001    0.0023    0.0025    0.0004    0.0004   -0.0016   -0.0010
          22   -0.0006   -0.0032    0.0316    0.0205    0.0124    0.0097    0.0252    0.0690
          23    0.0020    0.0060    0.2527    0.2020    0.0714    0.0731    0.1874    0.2453
          24   -0.0002   -0.0002   -0.0167   -0.0132   -0.0047   -0.0051   -0.0124   -0.0162
          25    0.0004    0.0013   -0.0306    0.0298    0.0021    0.0064    0.0663   -0.0368
          26   -0.0005   -0.0017    0.0219   -0.0295    0.0002   -0.0064   -0.0496    0.0684
          27    0.0000    0.0000   -0.0014    0.0019   -0.0000    0.0004    0.0031   -0.0044
          28    0.0071   -0.0083    0.0289   -0.0298   -0.0307    0.0267   -0.0144    0.0085
          29   -0.0177    0.0153   -0.0111    0.0076   -0.0054    0.0065    0.0073   -0.0071
          30    0.0012   -0.0011    0.0006   -0.0004    0.0004   -0.0005   -0.0004    0.0004
          31   -0.0022    0.0016    0.0139   -0.0137    0.0049   -0.0047    0.0021    0.0015
          32   -0.0023    0.0019    0.0095   -0.0122    0.0019   -0.0048   -0.0017   -0.0214
          33    0.0002   -0.0001   -0.0007    0.0010   -0.0001    0.0000    0.0001    0.0014
          34   -0.0014    0.0012   -0.0085   -0.0088   -0.0056   -0.0015   -0.0340    0.0394
          35    0.0016   -0.0001   -0.0348    0.0369   -0.0053    0.0111    0.0250   -0.0176
          36   -0.0001   -0.0001    0.0023   -0.0025    0.0003   -0.0004   -0.0015    0.0010
          37   -0.1193    0.1006    0.0041    0.0122    0.1267   -0.1269   -0.0756    0.0571
          38   -0.0616    0.0524   -0.0115    0.0148    0.0579   -0.0579   -0.0346    0.0258
          39    0.0044   -0.0039    0.0007   -0.0008   -0.0041    0.0038    0.0025   -0.0019
          40    0.0448   -0.0375   -0.0508    0.0674    0.1061   -0.1011   -0.0311    0.0026
          41    0.1365   -0.1195    0.0167   -0.0140   -0.0104    0.0084   -0.0076    0.0099
          42   -0.1180    0.1015    0.0153   -0.0275   -0.0571    0.0564    0.0266   -0.0100
          43    0.0454   -0.0380   -0.0509    0.0676    0.1064   -0.1013   -0.0312    0.0027
          44    0.1508   -0.1319    0.0146   -0.0104   -0.0029    0.0014   -0.0110    0.0110
          45    0.0989   -0.0852   -0.0171    0.0287    0.0574   -0.0561   -0.0252    0.0084
          46   -0.0011    0.0031    0.0316   -0.0205    0.0124   -0.0097    0.0252   -0.0690
          47    0.0028   -0.0057    0.2527   -0.2020    0.0715   -0.0731    0.1875   -0.2452
          48   -0.0002    0.0002   -0.0167    0.0132   -0.0047    0.0051   -0.0124    0.0162


   Root No.      33        34        35        36        37        38        39        40

                11 Ag     10 Bu     12 Ag     11 Bu      7 Bg      8 Au     13 Ag     12 Bu  

                1783.0    1839.7    2450.2    2583.8    2649.6    2650.2    2661.5    2661.9
  
           1    0.0184   -0.0151   -0.0004    0.0007    0.0001   -0.0001    0.0002   -0.0001
           2    0.0041   -0.0097    0.0029   -0.0005    0.0019   -0.0018    0.0243   -0.0243
           3   -0.0003    0.0007   -0.0002    0.0000    0.0270   -0.0270   -0.0017    0.0016
           4   -0.1015    0.0958   -0.0008   -0.0082    0.0000   -0.0000    0.0004   -0.0002
           5   -0.0786    0.1352   -0.0266    0.0022    0.0002   -0.0001    0.0017   -0.0016
           6    0.0055   -0.0091    0.0018   -0.0001    0.0015   -0.0014   -0.0002    0.0001
           7   -0.0053    0.0252   -0.0070    0.0058    0.0001   -0.0000    0.0953   -0.0952
           8    0.0048    0.0003   -0.0014   -0.0162    0.0009   -0.0008   -0.2085    0.2087
           9   -0.0002   -0.0001    0.0001    0.0010    0.0124   -0.0124    0.0133   -0.0134
          10    0.0270   -0.0345    0.0025    0.0067    0.0935   -0.0936   -0.0485    0.0482
          11   -0.0106    0.0193   -0.0038    0.0093    0.0999   -0.0997   -0.0411    0.0409
          12    0.0220   -0.0242    0.0027   -0.0183   -0.1840    0.1841    0.1028   -0.1025
          13    0.0269   -0.0344    0.0024    0.0068   -0.0946    0.0946   -0.0489    0.0488
          14   -0.0132    0.0223   -0.0041    0.0116   -0.1228    0.1230   -0.0541    0.0539
          15   -0.0207    0.0216   -0.0022    0.0169   -0.1689    0.1690   -0.0966    0.0960
          16    0.0514   -0.0666    0.0092    0.0019    0.0000    0.0000   -0.0004    0.0004
          17    0.0606   -0.0822    0.0103    0.0025    0.0000   -0.0000   -0.0002    0.0002
          18   -0.0040    0.0056   -0.0007   -0.0002    0.0000   -0.0001    0.0000   -0.0000
          19    0.0067    0.0060    0.0236   -0.0225   -0.0000   -0.0000    0.0001   -0.0000
          20    0.0031   -0.0183    0.0041    0.0009    0.0001   -0.0000   -0.0001    0.0001
          21   -0.0003    0.0011   -0.0004    0.0000    0.0001   -0.0001   -0.0001   -0.0000
          22    0.0872    0.0437   -0.4096    0.3966   -0.0000   -0.0000    0.0011   -0.0033
          23   -0.1637    0.0584    0.0666   -0.0795    0.0000    0.0000   -0.0001    0.0008
          24    0.0104   -0.0040   -0.0032    0.0041   -0.0000    0.0005   -0.0001   -0.0000
          25    0.1015    0.0958    0.0008   -0.0082   -0.0000   -0.0000   -0.0004   -0.0002
          26    0.0786    0.1352    0.0266    0.0022   -0.0002   -0.0001   -0.0017   -0.0016
          27   -0.0055   -0.0091   -0.0018   -0.0001   -0.0015   -0.0014    0.0002    0.0001
          28   -0.0184   -0.0151    0.0004    0.0007   -0.0001   -0.0001   -0.0002   -0.0001
          29   -0.0041   -0.0097   -0.0029   -0.0005   -0.0019   -0.0018   -0.0243   -0.0242
          30    0.0003    0.0007    0.0002    0.0000   -0.0270   -0.0270    0.0017    0.0016
          31   -0.0514   -0.0666   -0.0092    0.0019   -0.0000   -0.0000    0.0004    0.0004
          32   -0.0606   -0.0822   -0.0103    0.0025   -0.0000   -0.0000    0.0002    0.0002
          33    0.0040    0.0055    0.0007   -0.0002   -0.0000   -0.0001   -0.0000   -0.0000
          34   -0.0067    0.0060   -0.0236   -0.0225    0.0000    0.0000   -0.0001   -0.0000
          35   -0.0031   -0.0183   -0.0041    0.0009   -0.0001   -0.0000    0.0001    0.0001
          36    0.0003    0.0012    0.0004    0.0000   -0.0001   -0.0001    0.0001   -0.0000
          37    0.0053    0.0252    0.0070    0.0058   -0.0001   -0.0000   -0.0955   -0.0950
          38   -0.0048    0.0003    0.0014   -0.0162   -0.0009   -0.0008    0.2090    0.2082
          39    0.0002   -0.0001   -0.0001    0.0010   -0.0124   -0.0124   -0.0133   -0.0134
          40   -0.0269   -0.0344   -0.0024    0.0068    0.0947    0.0945    0.0490    0.0487
          41    0.0132    0.0223    0.0041    0.0116    0.1229    0.1228    0.0542    0.0538
          42    0.0207    0.0216    0.0022    0.0169    0.1691    0.1688    0.0968    0.0958
          43   -0.0270   -0.0345   -0.0025    0.0067   -0.0937   -0.0935    0.0486    0.0481
          44    0.0106    0.0193    0.0038    0.0093   -0.1000   -0.0997    0.0412    0.0408
          45   -0.0220   -0.0241   -0.0027   -0.0183    0.1842    0.1839   -0.1030   -0.1023
          46   -0.0872    0.0437    0.4096    0.3966    0.0000    0.0000   -0.0011   -0.0033
          47    0.1637    0.0584   -0.0666   -0.0795   -0.0000    0.0000    0.0001    0.0008
          48   -0.0104   -0.0039    0.0032    0.0041    0.0000    0.0005    0.0001   -0.0000


   Root No.      41        42

                14 Ag     13 Bu  

                2766.3    2766.8
  
           1   -0.0112    0.0120
           2    0.0004   -0.0004
           3   -0.0000   -0.0000
           4   -0.0044    0.0045
           5   -0.0005    0.0006
           6   -0.0000   -0.0001
           7    0.0585   -0.0628
           8   -0.1436    0.1543
           9    0.0085   -0.0100
          10    0.0545   -0.0587
          11    0.0623   -0.0664
          12   -0.1227    0.1326
          13    0.0551   -0.0594
          14    0.0765   -0.0832
          15    0.1140   -0.1225
          16    0.0007   -0.0008
          17    0.0007   -0.0007
          18   -0.0009    0.0000
          19    0.0004   -0.0016
          20   -0.0002    0.0003
          21    0.0009   -0.0000
          22    0.0001    0.0223
          23   -0.0013   -0.0025
          24    0.0009    0.0001
          25    0.0049    0.0040
          26    0.0006    0.0006
          27    0.0000   -0.0000
          28    0.0125    0.0107
          29   -0.0004   -0.0003
          30    0.0000   -0.0000
          31   -0.0008   -0.0007
          32   -0.0007   -0.0006
          33    0.0009    0.0001
          34   -0.0006   -0.0015
          35    0.0002    0.0003
          36   -0.0009   -0.0000
          37   -0.0656   -0.0559
          38    0.1611    0.1374
          39   -0.0096   -0.0089
          40   -0.0619   -0.0529
          41   -0.0860   -0.0741
          42   -0.1279   -0.1091
          43   -0.0612   -0.0523
          44   -0.0698   -0.0592
          45    0.1377    0.1181
          46    0.0026    0.0221
          47    0.0010   -0.0026
          48   -0.0009    0.0001


           MASS-WEIGHTED COORDINATE ANALYSIS (NORMAL COORDINATES)


   Root No.       1         2         3         4         5         6         7         8

                 1 Au      1 Bg      2 Au      1 Ag      1 Bu      2 Bg      3 Au      2 Ag  

                -260.1    -250.5      85.8     109.5     126.1     141.4     168.9     350.1
  
           1    0.0003    0.0002   -0.0012   -0.0424   -0.0062    0.0010   -0.0006    0.2671
           2    0.0073    0.0047   -0.0282    0.2036    0.4396    0.0195   -0.0132   -0.1578
           3    0.1121    0.0665   -0.4312   -0.0126   -0.0288    0.3029   -0.2017    0.0103
           4   -0.0001   -0.0002   -0.0000   -0.0370   -0.0045   -0.0003    0.0001    0.2375
           5   -0.0032   -0.0054    0.0001   -0.2305   -0.1506   -0.0090    0.0017    0.1057
           6   -0.0479   -0.0874    0.0019    0.0142    0.0100   -0.1528    0.0259   -0.0072
           7    0.0012    0.0011   -0.0002    0.0948    0.1589   -0.0002   -0.0001   -0.0301
           8    0.0271    0.0254   -0.0047    0.1044    0.1981    0.0019   -0.0027   -0.0970
           9    0.4132    0.3856   -0.0718   -0.0073   -0.0134    0.0328   -0.0408    0.0067
          10    0.0780    0.0757   -0.0625   -0.0811   -0.1085    0.0756   -0.0440    0.1552
          11   -0.3672   -0.3551   -0.0886    0.1236    0.2293    0.0940   -0.0446   -0.1280
          12   -0.1175   -0.1253   -0.1915   -0.0033   -0.0078    0.1648   -0.0986    0.0006
          13   -0.0788   -0.0765    0.0614   -0.0817   -0.1085   -0.0742    0.0434    0.1553
          14    0.3487    0.3359    0.0628    0.1222    0.2285   -0.0722    0.0313   -0.1269
          15   -0.1641   -0.1702   -0.2018   -0.0112   -0.0217    0.1762   -0.1038    0.0155
          16   -0.0001   -0.0005    0.0013    0.1531    0.0614   -0.0016   -0.0010    0.3885
          17   -0.0029   -0.0128    0.0295   -0.4004   -0.2184   -0.0222   -0.0232    0.0132
          18   -0.0440   -0.2003    0.4508    0.0227    0.0143   -0.3631   -0.3535   -0.0015
          19   -0.0001    0.0001    0.0000   -0.1928   -0.0357   -0.0004    0.0015   -0.2580
          20   -0.0027    0.0038    0.0011   -0.3334   -0.1868   -0.0251    0.0354   -0.0995
          21   -0.0407    0.0511    0.0172    0.0220    0.0124   -0.4041    0.5388    0.0071
          22   -0.0000    0.0001    0.0002   -0.0421   -0.0076   -0.0000    0.0003   -0.0704
          23   -0.0010    0.0019    0.0054   -0.0589   -0.0394   -0.0037    0.0073   -0.1097
          24   -0.0157    0.0281    0.0824    0.0041    0.0026   -0.0602    0.1115    0.0073
          25   -0.0001    0.0002    0.0000    0.0370   -0.0045    0.0003    0.0001   -0.2375
          26   -0.0031    0.0054    0.0002    0.2305   -0.1506    0.0090    0.0017   -0.1057
          27   -0.0479    0.0874    0.0019   -0.0142    0.0098    0.1528    0.0259    0.0072
          28    0.0003   -0.0002   -0.0012    0.0424   -0.0062   -0.0010   -0.0006   -0.2671
          29    0.0074   -0.0047   -0.0284   -0.2036    0.4396   -0.0194   -0.0132    0.1578
          30    0.1122   -0.0664   -0.4312    0.0127   -0.0289   -0.3029   -0.2017   -0.0103
          31   -0.0001    0.0005    0.0012   -0.1531    0.0614    0.0016   -0.0010   -0.3885
          32   -0.0029    0.0127    0.0297    0.4004   -0.2183    0.0221   -0.0232   -0.0132
          33   -0.0440    0.2002    0.4508   -0.0229    0.0141    0.3630   -0.3534    0.0015
          34   -0.0001   -0.0001    0.0001    0.1928   -0.0357    0.0004    0.0015    0.2580
          35   -0.0027   -0.0038    0.0012    0.3334   -0.1867    0.0250    0.0354    0.0995
          36   -0.0408   -0.0512    0.0172   -0.0220    0.0123    0.4042    0.5388   -0.0070
          37    0.0012   -0.0011   -0.0002   -0.0948    0.1589    0.0002   -0.0001    0.0301
          38    0.0272   -0.0254   -0.0047   -0.1045    0.1980   -0.0018   -0.0027    0.0970
          39    0.4135   -0.3854   -0.0718    0.0073   -0.0135   -0.0328   -0.0407   -0.0068
          40   -0.0789    0.0765    0.0614    0.0817   -0.1085    0.0741    0.0434   -0.1554
          41    0.3489   -0.3356    0.0628   -0.1223    0.2284    0.0722    0.0313    0.1269
          42   -0.1642    0.1701   -0.2018    0.0113   -0.0216   -0.1762   -0.1038   -0.0155
          43    0.0781   -0.0757   -0.0625    0.0811   -0.1084   -0.0756   -0.0440   -0.1552
          44   -0.3674    0.3549   -0.0887   -0.1237    0.2294   -0.0939   -0.0446    0.1280
          45   -0.1176    0.1252   -0.1915    0.0033   -0.0078   -0.1648   -0.0986   -0.0006
          46   -0.0000   -0.0001    0.0002    0.0421   -0.0075    0.0000    0.0003    0.0704
          47   -0.0010   -0.0019    0.0054    0.0589   -0.0394    0.0037    0.0073    0.1097
          48   -0.0157   -0.0281    0.0824   -0.0041    0.0026    0.0602    0.1115   -0.0073


   Root No.       9        10        11        12        13        14        15        16

                 3 Ag      3 Bg      4 Au      2 Bu      4 Ag      3 Bu      5 Au      5 Ag  

                 401.1     550.8     552.9     570.2     768.1     793.8     893.3     984.8
  
           1    0.3497    0.0001    0.0000    0.2914    0.0647    0.0132    0.0003   -0.0451
           2    0.1391   -0.0001    0.0001    0.0312   -0.0022    0.1260    0.0060   -0.3599
           3   -0.0106    0.0117    0.0007   -0.0029   -0.0002   -0.0083    0.0909    0.0215
           4    0.3086    0.0015    0.0015    0.2225   -0.0204   -0.0328    0.0002    0.0997
           5   -0.1672    0.0336    0.0340   -0.0146   -0.0396    0.2075    0.0046   -0.0123
           6    0.0098    0.5203    0.5170    0.0001    0.0025   -0.0135    0.0702   -0.0000
           7    0.2014   -0.0002   -0.0001    0.0919    0.0106   -0.1902   -0.0000    0.3457
           8    0.0857   -0.0035   -0.0030    0.0116   -0.0036   -0.0569   -0.0006    0.0727
           9   -0.0064   -0.0479   -0.0459   -0.0010    0.0002    0.0043   -0.0097   -0.0064
          10    0.0484   -0.2164   -0.2179    0.0927    0.0247    0.1197   -0.1091   -0.2511
          11    0.0916   -0.0376   -0.0420   -0.0007   -0.0113   -0.0941   -0.0056    0.1543
          12   -0.0036   -0.1220   -0.1280   -0.0015    0.0008   -0.0042   -0.0359    0.0060
          13    0.0485    0.2158    0.2172    0.0925    0.0247    0.1198    0.1089   -0.2518
          14    0.0912    0.0206    0.0249   -0.0006   -0.0113   -0.0927    0.0008    0.1523
          15   -0.0090   -0.1270   -0.1337    0.0013    0.0003    0.0158   -0.0369   -0.0257
          16   -0.0915   -0.0013   -0.0004   -0.2065    0.3289    0.4005   -0.0002    0.1276
          17    0.1345   -0.0167   -0.0097    0.3108   -0.3490   -0.1827   -0.0057    0.0996
          18   -0.0091   -0.2495   -0.1478   -0.0200    0.0220    0.0109   -0.0878   -0.0077
          19    0.3251   -0.0001   -0.0005   -0.2861    0.3096   -0.3674   -0.0006   -0.0893
          20   -0.1431   -0.0102   -0.0111   -0.2868    0.3466   -0.0181   -0.0126    0.1431
          21    0.0086   -0.1457   -0.1692    0.0200   -0.0238    0.0022   -0.1924   -0.0102
          22    0.0979   -0.0003   -0.0006   -0.0885    0.1172   -0.1133    0.0018   -0.0214
          23   -0.0558   -0.0083   -0.0142   -0.1630    0.1771   -0.1079    0.0422   -0.0594
          24    0.0035   -0.1254   -0.2167    0.0111   -0.0120    0.0074    0.6430    0.0039
          25   -0.3086   -0.0013    0.0015    0.2225    0.0204   -0.0328    0.0002   -0.0997
          26    0.1672   -0.0335    0.0339   -0.0146    0.0396    0.2075    0.0046    0.0123
          27   -0.0098   -0.5201    0.5173    0.0006   -0.0025   -0.0136    0.0702   -0.0000
          28   -0.3497    0.0002   -0.0000    0.2914   -0.0647    0.0132    0.0003    0.0451
          29   -0.1391    0.0001   -0.0000    0.0312    0.0022    0.1260    0.0059    0.3600
          30    0.0107   -0.0117    0.0007   -0.0029    0.0002   -0.0084    0.0909   -0.0215
          31    0.0915    0.0011   -0.0005   -0.2065   -0.3289    0.4005   -0.0003   -0.1277
          32   -0.1345    0.0169   -0.0097    0.3108    0.3490   -0.1827   -0.0058   -0.0997
          33    0.0091    0.2494   -0.1479   -0.0197   -0.0220    0.0108   -0.0878    0.0078
          34   -0.3251   -0.0002   -0.0004   -0.2861   -0.3096   -0.3674   -0.0005    0.0893
          35    0.1430    0.0099   -0.0112   -0.2869   -0.3466   -0.0181   -0.0127   -0.1431
          36   -0.0086    0.1457   -0.1693    0.0193    0.0238    0.0023   -0.1925    0.0102
          37   -0.2014    0.0003   -0.0001    0.0919   -0.0106   -0.1902   -0.0000   -0.3457
          38   -0.0857    0.0035   -0.0030    0.0116    0.0036   -0.0569   -0.0006   -0.0727
          39    0.0064    0.0479   -0.0459   -0.0010   -0.0002    0.0042   -0.0097    0.0064
          40   -0.0485   -0.2156    0.2173    0.0927   -0.0247    0.1198    0.1089    0.2519
          41   -0.0912   -0.0206    0.0249   -0.0006    0.0113   -0.0928    0.0008   -0.1523
          42    0.0090    0.1270   -0.1337    0.0011   -0.0003    0.0158   -0.0369    0.0257
          43   -0.0484    0.2164   -0.2180    0.0925   -0.0247    0.1197   -0.1091    0.2511
          44   -0.0916    0.0376   -0.0421   -0.0008    0.0113   -0.0941   -0.0056   -0.1543
          45    0.0036    0.1220   -0.1281   -0.0017   -0.0008   -0.0042   -0.0359   -0.0060
          46   -0.0979    0.0002   -0.0006   -0.0885   -0.1172   -0.1133    0.0018    0.0214
          47    0.0558    0.0082   -0.0142   -0.1630   -0.1771   -0.1079    0.0422    0.0594
          48   -0.0035    0.1253   -0.2168    0.0108    0.0120    0.0074    0.6430   -0.0039


   Root No.      17        18        19        20        21        22        23        24

                 4 Bu      5 Bu      4 Bg      6 Au      6 Ag      5 Bg      6 Bg      7 Au  

                1014.8    1020.7    1031.4    1048.6    1079.7    1172.0    1235.1    1235.5
  
           1    0.1307    0.3875    0.0008   -0.0007   -0.4010   -0.0000    0.0006   -0.0006
           2    0.3260   -0.1031    0.0150   -0.0167    0.0394   -0.0025    0.0151   -0.0145
           3   -0.0220    0.0056    0.2622   -0.2526   -0.0016   -0.0459    0.2237   -0.2214
           4   -0.1152   -0.1382   -0.0009    0.0010    0.2414    0.0004   -0.0001    0.0001
           5   -0.0865   -0.0557   -0.0204    0.0228    0.0227    0.0114   -0.0025    0.0027
           6    0.0059    0.0042   -0.2939    0.3481   -0.0023    0.1703   -0.0414    0.0404
           7   -0.2519    0.2581    0.0005   -0.0000   -0.2092   -0.0001   -0.0015    0.0016
           8   -0.0490    0.0498   -0.0000   -0.0012   -0.0447   -0.0022   -0.0361    0.0365
           9    0.0039   -0.0040    0.0062   -0.0176    0.0034   -0.0355   -0.5529    0.5556
          10    0.2455    0.0436   -0.3736    0.3643   -0.0831    0.0715    0.0867   -0.0869
          11   -0.1327    0.0227    0.0193   -0.0230    0.0078   -0.0195   -0.2440    0.2436
          12   -0.0049    0.0039   -0.1164    0.1123   -0.0004    0.0150   -0.0507    0.0508
          13    0.2455    0.0432    0.3724   -0.3637   -0.0830   -0.0714   -0.0868    0.0873
          14   -0.1310    0.0221   -0.0353    0.0375    0.0077    0.0212    0.2358   -0.2348
          15    0.0207   -0.0070   -0.1148    0.1104   -0.0001    0.0130   -0.0821    0.0817
          16   -0.2536   -0.1127   -0.0005   -0.0003    0.2828    0.0001    0.0002   -0.0000
          17   -0.1153   -0.2555    0.0026   -0.0049    0.1645   -0.0002    0.0012   -0.0007
          18    0.0082    0.0173    0.0504   -0.0738   -0.0121   -0.0047    0.0160   -0.0109
          19    0.1631   -0.1796    0.0004   -0.0002    0.2459   -0.0006   -0.0002   -0.0000
          20   -0.0510    0.3579    0.0003   -0.0056   -0.2026   -0.0107    0.0006   -0.0005
          21    0.0028   -0.0232    0.0110   -0.0847    0.0130   -0.1649    0.0063   -0.0079
          22    0.0682   -0.0412    0.0006    0.0003    0.0772    0.0018   -0.0001    0.0000
          23    0.1486    0.0456    0.0121    0.0064   -0.0662    0.0430   -0.0021    0.0008
          24   -0.0099   -0.0030    0.1864    0.0972    0.0043    0.6534   -0.0328    0.0118
          25   -0.1152   -0.1382    0.0008    0.0010   -0.2414   -0.0004    0.0001    0.0001
          26   -0.0865   -0.0557    0.0203    0.0229   -0.0227   -0.0114    0.0025    0.0026
          27    0.0061    0.0039    0.2939    0.3481    0.0023   -0.1703    0.0414    0.0404
          28    0.1307    0.3875   -0.0005   -0.0007    0.4010    0.0000   -0.0005   -0.0006
          29    0.3260   -0.1031   -0.0151   -0.0164   -0.0394    0.0025   -0.0151   -0.0145
          30   -0.0216    0.0057   -0.2623   -0.2526    0.0015    0.0459   -0.2238   -0.2213
          31   -0.2536   -0.1127    0.0004   -0.0002   -0.2828   -0.0001   -0.0002   -0.0000
          32   -0.1153   -0.2556   -0.0028   -0.0048   -0.1645    0.0002   -0.0012   -0.0007
          33    0.0083    0.0169   -0.0504   -0.0738    0.0121    0.0047   -0.0160   -0.0109
          34    0.1631   -0.1796   -0.0006   -0.0003   -0.2459    0.0006    0.0002   -0.0000
          35   -0.0510    0.3580    0.0000   -0.0055    0.2026    0.0107   -0.0006   -0.0005
          36    0.0030   -0.0228   -0.0111   -0.0848   -0.0130    0.1649   -0.0063   -0.0079
          37   -0.2519    0.2581   -0.0002   -0.0001    0.2092    0.0001    0.0015    0.0016
          38   -0.0490    0.0498    0.0001   -0.0011    0.0447    0.0022    0.0361    0.0365
          39    0.0040   -0.0041   -0.0062   -0.0176   -0.0034    0.0355    0.5530    0.5555
          40    0.2455    0.0435   -0.3724   -0.3637    0.0830    0.0714    0.0868    0.0873
          41   -0.1310    0.0220    0.0353    0.0376   -0.0077   -0.0212   -0.2359   -0.2348
          42    0.0208   -0.0071    0.1148    0.1104    0.0002   -0.0130    0.0821    0.0817
          43    0.2454    0.0432    0.3737    0.3643    0.0831   -0.0715   -0.0868   -0.0869
          44   -0.1327    0.0228   -0.0193   -0.0229   -0.0078    0.0195    0.2441    0.2434
          45   -0.0047    0.0038    0.1164    0.1123    0.0004   -0.0150    0.0507    0.0507
          46    0.0682   -0.0412   -0.0007    0.0003   -0.0772   -0.0018    0.0001    0.0000
          47    0.1486    0.0456   -0.0121    0.0064    0.0662   -0.0430    0.0021    0.0008
          48   -0.0100   -0.0027   -0.1864    0.0972   -0.0043   -0.6534    0.0328    0.0118


   Root No.      25        26        27        28        29        30        31        32

                 6 Bu      7 Ag      7 Bu      8 Ag      8 Bu      9 Ag      9 Bu     10 Ag  

                1246.0    1246.0    1293.6    1303.5    1352.4    1358.3    1455.8    1458.3
  
           1    0.0503    0.0790    0.1996    0.2160   -0.2894   -0.2566   -0.0877   -0.0491
           2   -0.1323   -0.1520   -0.0764   -0.0554   -0.0510   -0.0620    0.0445    0.0407
           3    0.0084    0.0107    0.0045    0.0027    0.0042    0.0047   -0.0027   -0.0022
           4    0.0048   -0.0108   -0.2113   -0.2161    0.0199   -0.0613    0.4052    0.2118
           5   -0.0062    0.0137    0.1514    0.2139    0.0019    0.0616   -0.3027   -0.3935
           6    0.0003   -0.0003   -0.0093   -0.0138   -0.0002   -0.0037    0.0187    0.0254
           7   -0.2596   -0.2902    0.0082   -0.0256    0.3461    0.3535   -0.1338   -0.0953
           8   -0.1338   -0.1510   -0.0229   -0.0311    0.1582    0.1612   -0.0613   -0.0431
           9    0.0095    0.0111    0.0015    0.0016   -0.0114   -0.0107    0.0045    0.0031
          10    0.0989    0.1099   -0.1019   -0.1420    0.2907    0.2823   -0.0553   -0.0044
          11    0.3264    0.3787    0.0291    0.0219   -0.0078   -0.0040   -0.0195   -0.0184
          12    0.2146    0.2450   -0.0342   -0.0603    0.1567    0.1564   -0.0446   -0.0140
          13    0.0976    0.1083   -0.1017   -0.1416    0.2898    0.2816   -0.0550   -0.0044
          14    0.2955    0.3430    0.0334    0.0293   -0.0284   -0.0235   -0.0135   -0.0165
          15   -0.2561   -0.2922    0.0307    0.0577   -0.1559   -0.1570    0.0471    0.0166
          16   -0.0194   -0.0183    0.1109    0.1149    0.0529    0.0517    0.0148   -0.0102
          17   -0.0198   -0.0217    0.0759    0.1022    0.0206    0.0532   -0.0123    0.1422
          18    0.0014    0.0013   -0.0053   -0.0083   -0.0017   -0.0004    0.0009   -0.0095
          19   -0.0126   -0.0135   -0.0676    0.0736   -0.0605    0.0171   -0.2398   -0.2616
          20    0.0154    0.0031   -0.2778   -0.3086   -0.0577   -0.1236    0.1764    0.1168
          21   -0.0011    0.0009    0.0184    0.0211    0.0042    0.0046   -0.0111   -0.0065
          22   -0.0016   -0.0080    0.0632    0.0430    0.0339    0.0270    0.0446    0.1150
          23    0.0050    0.0151    0.5059    0.4244    0.1952    0.2035    0.3316    0.4088
          24   -0.0004   -0.0005   -0.0334   -0.0278   -0.0129   -0.0142   -0.0219   -0.0271
          25    0.0033    0.0114   -0.2113    0.2161    0.0199    0.0614    0.4052   -0.2118
          26   -0.0043   -0.0144    0.1514   -0.2139    0.0020   -0.0616   -0.3027    0.3935
          27    0.0004    0.0003   -0.0094    0.0138   -0.0002    0.0037    0.0187   -0.0254
          28    0.0606   -0.0714    0.1996   -0.2160   -0.2896    0.2564   -0.0877    0.0491
          29   -0.1519    0.1324   -0.0764    0.0554   -0.0511    0.0620    0.0445   -0.0407
          30    0.0100   -0.0095    0.0044   -0.0027    0.0042   -0.0047   -0.0027    0.0022
          31   -0.0217    0.0155    0.1109   -0.1149    0.0529   -0.0517    0.0148    0.0102
          32   -0.0226    0.0188    0.0759   -0.1022    0.0207   -0.0532   -0.0123   -0.1422
          33    0.0015   -0.0011   -0.0053    0.0083   -0.0013    0.0004    0.0006    0.0095
          34   -0.0143    0.0116   -0.0676   -0.0736   -0.0605   -0.0172   -0.2399    0.2616
          35    0.0157   -0.0009   -0.2778    0.3086   -0.0579    0.1235    0.1764   -0.1168
          36   -0.0008   -0.0010    0.0184   -0.0211    0.0037   -0.0046   -0.0107    0.0065
          37   -0.2969    0.2519    0.0082    0.0257    0.3464   -0.3532   -0.1338    0.0952
          38   -0.1532    0.1313   -0.0229    0.0311    0.1583   -0.1611   -0.0613    0.0430
          39    0.0109   -0.0098    0.0015   -0.0016   -0.0113    0.0107    0.0044   -0.0031
          40    0.1115   -0.0939   -0.1017    0.1416    0.2901   -0.2814   -0.0550    0.0044
          41    0.3398   -0.2992    0.0334   -0.0293   -0.0283    0.0235   -0.0135    0.0165
          42   -0.2937    0.2543    0.0307   -0.0577   -0.1561    0.1568    0.0471   -0.0166
          43    0.1130   -0.0953   -0.1019    0.1420    0.2909   -0.2820   -0.0552    0.0044
          44    0.3752   -0.3304    0.0291   -0.0219   -0.0078    0.0040   -0.0195    0.0184
          45    0.2462   -0.2133   -0.0343    0.0603    0.1568   -0.1562   -0.0446    0.0140
          46   -0.0027    0.0077    0.0632   -0.0430    0.0339   -0.0269    0.0446   -0.1150
          47    0.0070   -0.0143    0.5059   -0.4244    0.1953   -0.2033    0.3317   -0.4087
          48   -0.0004    0.0005   -0.0334    0.0278   -0.0130    0.0142   -0.0219    0.0271


   Root No.      33        34        35        36        37        38        39        40

                11 Ag     10 Bu     12 Ag     11 Bu      7 Bg      8 Au     13 Ag     12 Bu  

                1783.0    1839.7    2450.2    2583.8    2649.6    2650.2    2661.5    2661.9
  
           1    0.0771   -0.0507   -0.0022    0.0040    0.0006   -0.0006    0.0013   -0.0010
           2    0.0171   -0.0326    0.0159   -0.0027    0.0137   -0.0127    0.1983   -0.1989
           3   -0.0012    0.0022   -0.0010    0.0002    0.1947   -0.1952   -0.0142    0.0130
           4   -0.4252    0.3225   -0.0047   -0.0479    0.0001   -0.0000    0.0029   -0.0020
           5   -0.3294    0.4547   -0.1478    0.0130    0.0012   -0.0006    0.0141   -0.0133
           6    0.0230   -0.0308    0.0097   -0.0007    0.0105   -0.0102   -0.0015    0.0008
           7   -0.0064    0.0246   -0.0113    0.0098    0.0002   -0.0001    0.2255   -0.2261
           8    0.0059    0.0003   -0.0022   -0.0274    0.0019   -0.0017   -0.4935    0.4954
           9   -0.0002   -0.0001    0.0002    0.0018    0.0260   -0.0259    0.0315   -0.0319
          10    0.0328   -0.0336    0.0039    0.0114    0.1958   -0.1960   -0.1147    0.1145
          11   -0.0128    0.0188   -0.0061    0.0158    0.2090   -0.2089   -0.0972    0.0970
          12    0.0267   -0.0235    0.0044   -0.0311   -0.3851    0.3856    0.2432   -0.2434
          13    0.0327   -0.0335    0.0039    0.0116   -0.1980    0.1981   -0.1158    0.1159
          14   -0.0160    0.0218   -0.0066    0.0197   -0.2570    0.2575   -0.1279    0.1280
          15   -0.0251    0.0210   -0.0036    0.0287   -0.3535    0.3539   -0.2286    0.2280
          16    0.2486   -0.2587    0.0587    0.0131    0.0003    0.0000   -0.0038    0.0038
          17    0.2928   -0.3191    0.0662    0.0171    0.0004   -0.0000   -0.0023    0.0017
          18   -0.0193    0.0218   -0.0044   -0.0011    0.0003   -0.0006    0.0002   -0.0001
          19    0.0324    0.0232    0.1512   -0.1520   -0.0003   -0.0000    0.0013   -0.0003
          20    0.0148   -0.0712    0.0266    0.0058    0.0004   -0.0000   -0.0013    0.0008
          21   -0.0016    0.0044   -0.0023    0.0000    0.0006   -0.0009   -0.0010   -0.0001
          22    0.1058    0.0426   -0.6592    0.6724   -0.0001   -0.0000    0.0027   -0.0078
          23   -0.1986    0.0569    0.1072   -0.1349    0.0000    0.0001   -0.0003    0.0019
          24    0.0126   -0.0039   -0.0052    0.0069   -0.0001    0.0010   -0.0002   -0.0001
          25    0.4252    0.3225    0.0047   -0.0479   -0.0001   -0.0000   -0.0029   -0.0020
          26    0.3294    0.4547    0.1478    0.0130   -0.0012   -0.0007   -0.0142   -0.0132
          27   -0.0230   -0.0308   -0.0097   -0.0007   -0.0105   -0.0102    0.0015    0.0009
          28   -0.0771   -0.0507    0.0022    0.0040   -0.0006   -0.0006   -0.0013   -0.0010
          29   -0.0171   -0.0325   -0.0159   -0.0027   -0.0137   -0.0129   -0.1987   -0.1984
          30    0.0012    0.0023    0.0010    0.0002   -0.1950   -0.1949    0.0142    0.0131
          31   -0.2486   -0.2587   -0.0587    0.0131   -0.0003   -0.0000    0.0038    0.0038
          32   -0.2928   -0.3191   -0.0662    0.0171   -0.0004   -0.0001    0.0023    0.0017
          33    0.0193    0.0215    0.0044   -0.0012   -0.0003   -0.0006   -0.0002   -0.0001
          34   -0.0324    0.0232   -0.1512   -0.1520    0.0003    0.0000   -0.0013   -0.0003
          35   -0.0148   -0.0712   -0.0266    0.0058   -0.0004   -0.0001    0.0013    0.0008
          36    0.0016    0.0048    0.0023    0.0001   -0.0006   -0.0008    0.0010   -0.0000
          37    0.0064    0.0246    0.0113    0.0098   -0.0002   -0.0001   -0.2260   -0.2256
          38   -0.0059    0.0003    0.0022   -0.0274   -0.0019   -0.0017    0.4946    0.4943
          39    0.0002   -0.0001   -0.0002    0.0018   -0.0260   -0.0259   -0.0316   -0.0318
          40   -0.0327   -0.0335   -0.0039    0.0116    0.1982    0.1978    0.1160    0.1156
          41    0.0160    0.0217    0.0066    0.0197    0.2573    0.2572    0.1282    0.1277
          42    0.0251    0.0211    0.0036    0.0287    0.3539    0.3535    0.2291    0.2275
          43   -0.0328   -0.0336   -0.0039    0.0114   -0.1960   -0.1957    0.1149    0.1143
          44    0.0128    0.0188    0.0061    0.0158   -0.2092   -0.2087    0.0975    0.0968
          45   -0.0267   -0.0235   -0.0044   -0.0311    0.3856    0.3852   -0.2438   -0.2428
          46   -0.1058    0.0426    0.6592    0.6724    0.0001    0.0000   -0.0027   -0.0078
          47    0.1986    0.0569   -0.1072   -0.1349   -0.0000    0.0001    0.0003    0.0019
          48   -0.0126   -0.0038    0.0052    0.0070    0.0001    0.0010    0.0002   -0.0001


   Root No.      41        42

                14 Ag     13 Bu  

                2766.3    2766.8
  
           1   -0.0972    0.1086
           2    0.0032   -0.0033
           3   -0.0001   -0.0001
           4   -0.0381    0.0407
           5   -0.0046    0.0058
           6   -0.0001   -0.0005
           7    0.1474   -0.1644
           8   -0.3619    0.4041
           9    0.0213   -0.0261
          10    0.1375   -0.1537
          11    0.1571   -0.1739
          12   -0.3092    0.3473
          13    0.1390   -0.1556
          14    0.1929   -0.2178
          15    0.2874   -0.3207
          16    0.0075   -0.0086
          17    0.0067   -0.0072
          18   -0.0088    0.0004
          19    0.0041   -0.0166
          20   -0.0017    0.0035
          21    0.0087   -0.0001
          22    0.0001    0.0583
          23   -0.0033   -0.0065
          24    0.0024    0.0003
          25    0.0426    0.0361
          26    0.0052    0.0053
          27    0.0001   -0.0004
          28    0.1090    0.0967
          29   -0.0036   -0.0029
          30    0.0001   -0.0001
          31   -0.0084   -0.0077
          32   -0.0075   -0.0063
          33    0.0089    0.0005
          34   -0.0060   -0.0160
          35    0.0021    0.0032
          36   -0.0088   -0.0002
          37   -0.1653   -0.1464
          38    0.4060    0.3598
          39   -0.0242   -0.0232
          40   -0.1559   -0.1385
          41   -0.2167   -0.1939
          42   -0.3224   -0.2856
          43   -0.1542   -0.1369
          44   -0.1760   -0.1549
          45    0.3471    0.3093
          46    0.0066    0.0580
          47    0.0026   -0.0068
          48   -0.0024    0.0003


          DESCRIPTION OF VIBRATIONS


 VIBRATION          1    1Au          ATOM PAIR      ENERGY CONTRIBUTION    RADIAL
 FREQUENCY          -260.14         C 10 -- H 13         +17.2% (-99.9%)      0.5%
 TRANSITION DIPOLE   0.0036         C  1 -- H  3         +17.2% (-99.9%)      0.4%
 TRAVEL (Ang.)       0.0000         C 10 -- H 15         +15.5% (-99.9%)      0.4%
 REDUCED MASS        0.1601         C 10 -- H 14         +15.5% (-99.9%)      4.4%
 EFFECTIVE MASS      1.0024         C  1 -- H  5         +15.5% (-99.9%)      4.0%
 FORCE CONSTANT     -0.0064         C  1 -- H  4         +15.5% (-99.9%)      0.6%

 VIBRATION          2    1Bg          ATOM PAIR      ENERGY CONTRIBUTION    RADIAL
 FREQUENCY          -250.48         C  1 -- H  3         +17.0% (-99.9%)      0.4%
 TRANSITION DIPOLE   0.0000         C 10 -- H 13         +17.0% (-99.9%)      0.5%
 TRAVEL (Ang.)       0.0000         C  1 -- H  4         +15.4% (-99.9%)      0.0%
 REDUCED MASS        0.1866         C  1 -- H  5         +15.4% (-99.9%)      2.2%
 EFFECTIVE MASS      0.1832         C 10 -- H 15         +15.4% (-99.9%)      0.0%
 FORCE CONSTANT     -0.0069         C 10 -- H 14         +15.4% (-99.9%)      2.5%

 VIBRATION          3    2Au          ATOM PAIR      ENERGY CONTRIBUTION    RADIAL
 FREQUENCY            85.80         C  9 -- C 10         +14.2% (463.2%)      0.0%
 TRANSITION DIPOLE   0.4718         C  1 -- C  2         +14.2% (463.1%)      0.0%
 TRAVEL (Ang.)       0.6004         C 10 -- H 13         +12.9% (441.7%)      0.5%
 REDUCED MASS        2.1800         C  1 -- H  3         +12.9% (441.7%)      0.4%
 EFFECTIVE MASS    259.3378         C 10 -- H 15         +10.8% (404.7%)     90.4%
 FORCE CONSTANT      0.0095         C 10 -- H 14         +10.8% (404.7%)     96.7%
                            C  1 -- H  5         +10.8% (404.7%)     96.4%
                            C  1 -- H  4         +10.8% (404.7%)     90.9%

 VIBRATION          4    1Ag          ATOM PAIR      ENERGY CONTRIBUTION    RADIAL
 FREQUENCY           109.55         C  9 -- C 10         +14.7% (370.0%)      0.0%
 TRANSITION DIPOLE   0.0001         C  1 -- C  2         +14.7% (370.0%)      0.0%
 TRAVEL (Ang.)       0.5670         C  9 -- O 12         +11.6% (327.8%)      3.7%
 REDUCED MASS        1.9147         C  2 -- O  7         +11.6% (327.8%)      3.7%
 EFFECTIVE MASS     97.2821
 FORCE CONSTANT      0.0135

[...]
 FREQUENCY          1245.95         C  1 -- H  4         +20.7% ( 39.4%)      1.8%
 TRANSITION DIPOLE   0.0535         C  1 -- H  5         +20.6% ( 39.4%)      0.0%
 TRAVEL (Ang.)       0.5455         C 10 -- H 15         +15.7% ( 34.4%)      2.0%
 REDUCED MASS        0.1819         C 10 -- H 14         +15.7% ( 34.4%)      0.0%
 EFFECTIVE MASS      1.5257         C  1 -- H  3         +12.6% ( 30.8%)     13.3%
 FORCE CONSTANT      0.1663

 VIBRATION         27    7Bu          ATOM PAIR      ENERGY CONTRIBUTION    RADIAL
 FREQUENCY          1293.64         O 12 -- H 16         +22.7% ( 59.8%)      1.4%
 TRANSITION DIPOLE   1.7628         O  7 -- H  8         +22.7% ( 59.8%)      1.4%
 TRAVEL (Ang.)       0.3153         C  9 -- O 12          +8.1% ( 35.7%)     99.5%
 REDUCED MASS        0.5242         C  2 -- O  7          +8.1% ( 35.7%)     99.5%
 EFFECTIVE MASS      6.2640
 FORCE CONSTANT      0.5169

 VIBRATION         28    8Ag          ATOM PAIR      ENERGY CONTRIBUTION    RADIAL
 FREQUENCY          1303.54         O  7 -- H  8         +16.0% ( 51.8%)      0.8%
 TRANSITION DIPOLE   0.0000         O 12 -- H 16         +16.0% ( 51.8%)      0.8%
 TRAVEL (Ang.)       0.2758         C  2 -- O  7         +11.8% ( 44.5%)     98.7%
 REDUCED MASS        0.6801         C  9 -- O 12         +11.8% ( 44.5%)     98.7%
 EFFECTIVE MASS      7.8801
 FORCE CONSTANT      0.6808

 VIBRATION         29    8Bu          ATOM PAIR      ENERGY CONTRIBUTION    RADIAL
 FREQUENCY          1352.38         C 10 -- H 13         +16.4% ( 42.7%)      0.3%
 TRANSITION DIPOLE   1.6618         C  1 -- H  3         +16.3% ( 42.7%)      0.3%
 TRAVEL (Ang.)       0.4258         C 10 -- H 14         +12.1% ( 36.8%)      2.2%
 REDUCED MASS        0.2750         C 10 -- H 15         +12.1% ( 36.7%)      3.4%
 EFFECTIVE MASS      2.7600         C  1 -- H  4         +12.1% ( 36.7%)      3.4%
 FORCE CONSTANT      0.2963         C  1 -- H  5         +12.1% ( 36.7%)      2.3%

 VIBRATION         30    9Ag          ATOM PAIR      ENERGY CONTRIBUTION    RADIAL
 FREQUENCY          1358.25         C  1 -- H  3         +16.4% ( 41.6%)      0.0%
 TRANSITION DIPOLE   0.0007         C 10 -- H 13         +16.4% ( 41.6%)      0.0%
 TRAVEL (Ang.)       0.4751         C  1 -- H  5         +11.2% ( 34.4%)      2.1%
 REDUCED MASS        0.2200         C 10 -- H 14         +11.2% ( 34.3%)      2.1%
 EFFECTIVE MASS      2.8851         C  1 -- H  4         +11.1% ( 34.3%)      3.3%
 FORCE CONSTANT      0.2391         C 10 -- H 15         +11.1% ( 34.3%)      3.4%

 VIBRATION         31    9Bu          ATOM PAIR      ENERGY CONTRIBUTION    RADIAL
 FREQUENCY          1455.82         C  9 -- O 12         +17.7% ( 54.2%)     73.6%
 TRANSITION DIPOLE   3.1398         C  2 -- O  7         +17.7% ( 54.2%)     73.6%
 TRAVEL (Ang.)       0.1579         C  9 -- C 10         +11.7% ( 44.0%)     66.8%
 REDUCED MASS        1.8574         C  1 -- C  2         +11.6% ( 44.0%)     66.8%
 EFFECTIVE MASS      9.0582         C  9 -- O 11         +10.2% ( 41.2%)      0.0%
 FORCE CONSTANT      2.3193         C  2 -- O  6         +10.2% ( 41.2%)      0.0%

 VIBRATION         32   10Ag          ATOM PAIR      ENERGY CONTRIBUTION    RADIAL
 FREQUENCY          1458.35         C  2 -- O  7         +15.0% ( 49.5%)     87.9%
 TRANSITION DIPOLE   0.0002         C  9 -- O 12         +15.0% ( 49.5%)     87.9%
 TRAVEL (Ang.)       0.1916         O  7 -- H  8         +13.7% ( 47.3%)     57.8%
 REDUCED MASS        1.2599         O 12 -- H 16         +13.7% ( 47.3%)     57.7%
 EFFECTIVE MASS      8.0690         C  2 -- O  6         +11.1% ( 42.6%)     27.7%
 FORCE CONSTANT      1.5787         C  9 -- O 11         +11.1% ( 42.6%)     27.8%

 VIBRATION         33   11Ag          ATOM PAIR      ENERGY CONTRIBUTION    RADIAL
 FREQUENCY          1783.05         C  9 -- O 11         +24.1% ( 66.2%)     96.0%
 TRANSITION DIPOLE   0.0000         C  2 -- O  6         +24.1% ( 66.2%)     96.0%
 TRAVEL (Ang.)       0.1178         C  9 -- C 10         +11.5% ( 45.7%)     67.6%
 REDUCED MASS        2.7238         C  1 -- C  2         +11.5% ( 45.7%)     67.6%
 EFFECTIVE MASS     11.9761         C  9 -- O 12         +11.0% ( 44.6%)      6.4%
 FORCE CONSTANT      5.1021         C  2 -- O  7         +11.0% ( 44.6%)      6.4%

 VIBRATION         34   10Bu          ATOM PAIR      ENERGY CONTRIBUTION    RADIAL
 FREQUENCY          1839.75         C  2 -- O  6         +25.8% ( 67.8%)    100.0%
 TRANSITION DIPOLE   8.0512         C  9 -- O 11         +25.8% ( 67.8%)    100.0%
 TRAVEL (Ang.)       0.1062         C  2 -- O  7         +11.9% ( 46.0%)     37.9%
 REDUCED MASS        3.2525         C  9 -- O 12         +11.9% ( 46.0%)     37.9%
 EFFECTIVE MASS     13.0910         C  1 -- C  2         +11.7% ( 45.7%)     36.9%
 FORCE CONSTANT      6.4861         C  9 -- C 10         +11.7% ( 45.7%)     36.8%

 VIBRATION         35   12Ag          ATOM PAIR      ENERGY CONTRIBUTION    RADIAL
 FREQUENCY          2450.16         O 12 -- H 16         +47.0% ( 69.7%)     99.7%
 TRANSITION DIPOLE   0.0000         O  7 -- H  8         +47.0% ( 69.7%)     99.7%
 TRAVEL (Ang.)       0.2523         C  2 -- O  6          +1.3% ( 11.7%)     89.1%
 REDUCED MASS        0.4325         C  9 -- O 11          +1.3% ( 11.7%)     89.1%
 EFFECTIVE MASS      1.8659
 FORCE CONSTANT      1.5296

 VIBRATION         36   11Bu          ATOM PAIR      ENERGY CONTRIBUTION    RADIAL
 FREQUENCY          2583.81         O  7 -- H  8         +49.1% ( 67.8%)     98.5%
 TRANSITION DIPOLE   4.6669         O 12 -- H 16         +49.1% ( 67.8%)     98.5%
 TRAVEL (Ang.)       0.2373         C  9 -- O 12          +0.3% (  5.6%)     10.0%
 REDUCED MASS        0.4633         C  2 -- O  7          +0.3% (  5.6%)     10.0%
 EFFECTIVE MASS      1.3781
 FORCE CONSTANT      1.8223

 VIBRATION         37    7Bg          ATOM PAIR      ENERGY CONTRIBUTION    RADIAL
 FREQUENCY          2649.62         C 10 -- H 14         +24.6% ( 51.2%)     99.3%
 TRANSITION DIPOLE   0.0008         C 10 -- H 15         +24.6% ( 51.2%)     95.2%
 TRAVEL (Ang.)       0.3196         C  1 -- H  5         +24.6% ( 51.1%)     99.2%
 REDUCED MASS        0.2492         C  1 -- H  4         +24.6% ( 51.1%)     95.6%
 EFFECTIVE MASS      1.4409
 FORCE CONSTANT      1.0308

 VIBRATION         38    8Au          ATOM PAIR      ENERGY CONTRIBUTION    RADIAL
 FREQUENCY          2650.21         C  1 -- H  5         +24.6% ( 51.2%)     99.2%
 TRANSITION DIPOLE   1.3125         C  1 -- H  4         +24.6% ( 51.2%)     95.6%
 TRAVEL (Ang.)       0.3195         C 10 -- H 15         +24.6% ( 51.1%)     95.3%
 REDUCED MASS        0.2493         C 10 -- H 14         +24.6% ( 51.1%)     99.3%
 EFFECTIVE MASS      1.4415
 FORCE CONSTANT      1.0316

 VIBRATION         39   13Ag          ATOM PAIR      ENERGY CONTRIBUTION    RADIAL
 FREQUENCY          2661.52         C 10 -- H 13         +31.7% ( 58.1%)     99.2%
 TRANSITION DIPOLE   0.0014         C  1 -- H  3         +31.5% ( 58.0%)     99.3%
 TRAVEL (Ang.)       0.3239         C 10 -- H 15          +9.0% ( 30.9%)     91.2%
 REDUCED MASS        0.2415         C 10 -- H 14          +9.0% ( 30.9%)     81.2%
 EFFECTIVE MASS      1.4651
 FORCE CONSTANT      1.0078

 VIBRATION         40   12Bu          ATOM PAIR      ENERGY CONTRIBUTION    RADIAL
 FREQUENCY          2661.95         C  1 -- H  3         +31.8% ( 58.2%)     99.3%
 TRANSITION DIPOLE   1.2027         C 10 -- H 13         +31.6% ( 58.1%)     99.2%
 TRAVEL (Ang.)       0.3233         C  1 -- H  4          +8.9% ( 30.9%)     90.5%
 REDUCED MASS        0.2423         C  1 -- H  5          +8.9% ( 30.9%)     82.0%
 EFFECTIVE MASS      1.4649
 FORCE CONSTANT      1.0115

 VIBRATION         41   14Ag          ATOM PAIR      ENERGY CONTRIBUTION    RADIAL
 FREQUENCY          2766.31         C 10 -- H 13         +19.8% ( 42.7%)     94.9%
 TRANSITION DIPOLE   0.0333         C 10 -- H 15         +17.8% ( 40.5%)     94.5%
 TRAVEL (Ang.)       0.3845         C 10 -- H 14         +17.8% ( 40.5%)     94.4%
 REDUCED MASS        0.1649         C  1 -- H  3         +15.7% ( 38.0%)     95.1%
 EFFECTIVE MASS      1.1516         C  1 -- H  4         +14.2% ( 36.1%)     94.6%
 FORCE CONSTANT      0.7433         C  1 -- H  5         +14.2% ( 36.1%)     94.5%

 VIBRATION         42   13Bu          ATOM PAIR      ENERGY CONTRIBUTION    RADIAL
 FREQUENCY          2766.83         C  1 -- H  3         +19.6% ( 42.5%)     95.0%
 TRANSITION DIPOLE   0.5778         C  1 -- H  5         +17.8% ( 40.4%)     94.5%
 TRAVEL (Ang.)       0.3871         C  1 -- H  4         +17.8% ( 40.4%)     94.6%
 REDUCED MASS        0.1627         C 10 -- H 13         +15.6% ( 37.8%)     94.9%
 EFFECTIVE MASS      1.1531         C 10 -- H 15         +14.1% ( 36.0%)     94.5%
 FORCE CONSTANT      0.7337         C 10 -- H 14         +14.1% ( 36.0%)     94.4%

      SYMMETRY NUMBER FOR POINT-GROUP C2h =  2


          SYSTEM IS A GROUND STATE



 dimer kyseliny octovej


          MOLECULE IS NOT LINEAR

          THERE ARE 42 GENUINE VIBRATIONS IN THIS SYSTEM
          THIS THERMODYNAMICS CALCULATION IS LIMITED TO
          MOLECULES WHICH HAVE NO INTERNAL ROTATIONS




                    CALCULATED THERMODYNAMIC PROPERTIES
                                          *
   TEMP. (K)   PARTITION FUNCTION   H.O.F.    ENTHALPY  HEAT CAPACITY ENTROPY
                                   KCAL/MOL   CAL/MOLE    CAL/K/MOL  CAL/K/MOL


 298.00  VIB.     0.2277D+03                  3866.9008    25.1975    23.7631
         ROT.     0.2231D+06                   888.2803     2.9808    27.4541
         INT.     0.5081D+08                  4755.1811    28.1783    51.2172
         TRA.     0.1273D+28                  1480.4672     4.9680    40.2618
         TOT.                     -221.945    6235.6483    33.1463    91.4790

 200.00  VIB.     0.2597D+02                  1781.0635    17.4894    15.3774
         ROT.     0.1227D+06                   596.1613     2.9808    26.2655
         INT.     0.3186D+07                  2377.2248    20.4702    41.6428
         TRA.     0.6997D+27                   993.6021     4.9680    38.2807
         TOT.                     -224.810    3370.8269    25.4382    79.9236

 210.00  VIB.     0.3248D+02                  1959.7076    18.2406    16.2488
         ROT.     0.1320D+06                   625.9693     2.9808    26.4109
         INT.     0.4287D+07                  2585.6769    21.2214    42.6597
         TRA.     0.7528D+27                  1043.2822     4.9680    38.5231
         TOT.                     -224.552    3628.9591    26.1895    81.1828

 220.00  VIB.     0.4061D+02                  2145.9035    19.0000    17.1149
         ROT.     0.1415D+06                   655.7774     2.9808    26.5496
         INT.     0.5748D+07                  2801.6809    21.9808    43.6645
         TRA.     0.8072D+27                  1092.9623     4.9680    38.7542
         TOT.                     -224.286    3894.6432    26.9488    82.4187

 230.00  VIB.     0.5075D+02                  2339.7371    19.7683    17.9764
         ROT.     0.1513D+06                   685.5855     2.9808    26.6821
         INT.     0.7678D+07                  3025.3225    22.7491    44.6585
         TRA.     0.8628D+27                  1142.6424     4.9680    38.9750
         TOT.                     -224.013    4167.9650    27.7171    83.6335

 240.00  VIB.     0.6339D+02                  2541.2989    20.5456    18.8341
         ROT.     0.1613D+06                   715.3935     2.9808    26.8089
         INT.     0.1022D+08                  3256.6924    23.5264    45.6430
         TRA.     0.9197D+27                  1192.3226     4.9680    39.1865
         TOT.                     -223.732    4449.0150    28.4944    84.8295

 250.00  VIB.     0.7912D+02                  2750.6789    21.3318    19.6887
         ROT.     0.1714D+06                   745.2016     2.9808    26.9306
         INT.     0.1356D+08                  3495.8805    24.3126    46.6193
         TRA.     0.9778D+27                  1242.0027     4.9680    39.3893
         TOT.                     -223.443    4737.8832    29.2806    86.0086

 260.00  VIB.     0.9871D+02                  2967.9618    22.1260    20.5408
         ROT.     0.1818D+06                   775.0097     2.9808    27.0475
         INT.     0.1795D+08                  3742.9715    25.1069    47.5884
         TRA.     0.1037D+28                  1291.6828     4.9680    39.5841
         TOT.                     -223.146    5034.6543    30.0749    87.1725

 270.00  VIB.     0.1231D+03                  3193.2234    22.9274    21.3909
         ROT.     0.1924D+06                   804.8177     2.9808    27.1600
         INT.     0.2368D+08                  3998.0412    25.9082    48.5509
         TRA.     0.1097D+28                  1341.3629     4.9680    39.7716
         TOT.                     -222.841    5339.4040    30.8762    88.3225

 280.00  VIB.     0.1534D+03                  3426.5283    23.7345    22.2393
         ROT.     0.2032D+06                   834.6258     2.9808    27.2684
         INT.     0.3117D+08                  4261.1541    26.7153    49.5077
         TRA.     0.1159D+28                  1391.0430     4.9680    39.9523
         TOT.                     -222.529    5652.1971    31.6833    89.4600

 290.00  VIB.     0.1911D+03                  3667.9277    24.5460    23.0863
         ROT.     0.2142D+06                   864.4339     2.9808    27.3730
         INT.     0.4093D+08                  4532.3616    27.5268    50.4593
         TRA.     0.1222D+28                  1440.7231     4.9680    40.1266
         TOT.                     -222.208    5973.0847    32.4948    90.5860

 300.00  VIB.     0.2379D+03                  3917.4589    25.3606    23.9322
         ROT.     0.2254D+06                   894.2419     2.9808    27.4741
         INT.     0.5362D+08                  4811.7008    28.3414    51.4062
         TRA.     0.1285D+28                  1490.4032     4.9680    40.2951
         TOT.                     -221.879    6302.1040    33.3094    91.7013

 310.00  VIB.     0.2961D+03                  4175.1442    26.1766    24.7770
         ROT.     0.2367D+06                   924.0500     2.9808    27.5718
         INT.     0.7010D+08                  5099.1942    29.1574    52.3488
         TRA.     0.1350D+28                  1540.0833     4.9680    40.4580
         TOT.                     -221.541    6639.2775    34.1254    92.8068

 320.00  VIB.     0.3684D+03                  4440.9914    26.9927    25.6210
         ROT.     0.2483D+06                   953.8580     2.9808    27.6665
         INT.     0.9147D+08                  5394.8494    29.9735    53.2874
         TRA.     0.1416D+28                  1589.7634     4.9680    40.6157
         TOT.                     -221.196    6984.6128    34.9415    93.9031

 330.00  VIB.     0.4582D+03                  4714.9939    27.8075    26.4641
         ROT.     0.2600D+06                   983.6661     2.9808    27.7582
         INT.     0.1191D+09                  5698.6600    30.7883    54.2223
         TRA.     0.1483D+28                  1639.4435     4.9680    40.7686
         TOT.                     -220.843    7338.1035    35.7563    94.9908

 340.00  VIB.     0.5696D+03                  4997.1315    28.6195    27.3063 
         ROT.     0.2719D+06                  1013.4742     2.9808    27.8472
         INT.     0.1549D+09                  6010.6057    31.6003    55.1534
         TRA.     0.1551D+28                  1689.1236     4.9680    40.9169
         TOT.                     -220.481    7699.7293    36.5683    96.0703

 350.00  VIB.     0.7080D+03                  5287.3712    29.4277    28.1476
         ROT.     0.2840D+06                  1043.2822     2.9808    27.9336
         INT.     0.2011D+09                  6330.6535    32.4085    56.0811
         TRA.     0.1620D+28                  1738.8037     4.9680    41.0609
         TOT.                     -220.111    8069.4572    37.3765    97.1420

 360.00  VIB.     0.8796D+03                  5585.6684    30.2308    28.9878
         ROT.     0.2963D+06                  1073.0903     2.9808    28.0175
         INT.     0.2606D+09                  6658.7587    33.2116    57.0054
         TRA.     0.1690D+28                  1788.4838     4.9680    41.2009
         TOT.                     -219.733    8447.2426    38.1796    98.2062

 370.00  VIB.     0.1092D+04                  5891.9676    31.0279    29.8270
         ROT.     0.3087D+06                  1102.8984     2.9808    28.0992
         INT.     0.3372D+09                  6994.8660    34.0087    57.9262
         TRA.     0.1761D+28                  1838.1639     4.9680    41.3370
         TOT.                     -219.348    8833.0299    38.9767    99.2632

 380.00  VIB.     0.1356D+04                  6206.2039    31.8181    30.6650
         ROT.     0.3213D+06                  1132.7064     2.9808    28.1787
         INT.     0.4358D+09                  7338.9103    34.7989    58.8437
         TRA.     0.1832D+28                  1887.8440     4.9680    41.4695
         TOT.                     -218.954    9226.7543    39.7669   100.3131

 390.00  VIB.     0.1684D+04                  6528.3037    32.6005    31.5016
         ROT.     0.3340D+06                  1162.5145     2.9808    28.2561
         INT.     0.5624D+09                  7690.8182    35.5813    59.7577
         TRA.     0.1905D+28                  1937.5242     4.9680    41.5985
         TOT.                     -218.552    9628.3423    40.5493   101.3562

 400.00  VIB.     0.2089D+04                  6858.1862    33.3745    32.3368
         ROT.     0.3470D+06                  1192.3226     2.9808    28.3316
         INT.     0.7249D+09                  8050.5088    36.3553    60.6684
         TRA.     0.1979D+28                  1987.2043     4.9680    41.7243
         TOT.                     -218.143   10037.7130    41.3234   102.3926

   *: NOTE: HEATS OF FORMATION ARE RELATIVE TO THE
            ELEMENTS IN THEIR STANDARD STATE AT 298K
              (=  Standard Enthalpy of Formation).

            Hvib:  Zero-point energy is not included.
                   frequencies of less than zero cm-1 are not included.
            Hrot = (3/2)RT
            Htra = (3/2)RT + pV = (5/2)RT

            Heat capacity is Cp, not Cv

          For more information, see: HTTP://OpenMOPAC.net/Manual/thermochemistry.html


           FORCE CONSTANT IN CARTESIAN COORDINATES (Millidynes/A)

    ATOM   CHEMICAL       X               Y               Z
   NUMBER   SYMBOL  FORCE CONSTANT  FORCE CONSTANT  FORCE CONSTANT

      1       C        7.559656        6.634178        5.976628
      2       C       12.186968       13.277702        3.177357
      3       H        1.292919        3.512224        0.567385
      4       H        1.164320        1.048472        2.916351
      5       H        1.176145        1.391231        2.561767
      6       O        8.380169        9.219992        0.469474
      7       O        8.713661        7.120275        1.035190
      8       H        3.432113        1.111651        0.589476
      9       C       12.186968       13.277702        3.177357
     10       C        7.559656        6.634178        5.976628
     11       O        8.380169        9.219992        0.469474
     12       O        8.713661        7.120275        1.035190
     13       H        1.292920        3.512224        0.567385
     14       H        1.176145        1.391231        2.561767
     15       H        1.164320        1.048472        2.916351
     16       H        3.432113        1.111651        0.589476

 **********************
 *                    *
 * JOB ENDED NORMALLY *
 *                    *
 **********************



 TOTAL JOB TIME:             5.80 SECONDS

 == MOPAC DONE ==
