 *******************************************************************************
 **                                                                           **
 **                              MOPAC v22.1.0                                **
 **                                                                           **
 *******************************************************************************
 **          Digital Object Identifier (DOI): 10.5281/zenodo.6511958          **
 **    Visit the DOI location for information on how to cite this program.    **
 *******************************************************************************

                              PM6 CALCULATION RESULTS

 *******************************************************************************
 *  CALCULATION DONE:                                Sun Jan  7 21:10:57 2024  *
 *  PM6        - The PM6 Hamiltonian to be used
 *  SINGLET    - SPIN STATE DEFINED AS A SINGLET
 *
 *
 *
 *                 CHARGE ON SYSTEM = 0
 *
 *
 *
 *  PRECISE    - TIGHTER CRITERIA TO BE USED
 *  T=         - A TIME OF 172800.0 SECONDS REQUESTED
 *  DUMP=N     - RESTART FILE WRITTEN EVERY 7200.0 SECONDS REQUESTED
 *  LARGE      - EXPANDED OUTPUT TO BE PRINTED
 *******************************************************************************
 LARGE CHARGE=0 SINGLET  PM6 PRECISE
 dimer  kyseliny octovej

   ATOM   CHEMICAL          X               Y               Z
  NUMBER   SYMBOL      (ANGSTROMS)     (ANGSTROMS)     (ANGSTROMS)
 
     1       C         -7.66214000  *   1.61962000  *  -0.12696000  *
     2       C         -6.20780000  *   1.87409000  *   0.10046000  *
     3       H         -8.05689000  *   2.36995000  *  -0.81787000  *
     4       H         -8.20397000  *   1.69630000  *   0.81890000  *
     5       H         -7.80040000  *   0.63055000  *  -0.57061000  *
     6       O         -5.55213000  *   2.78166000  *  -0.39180000  *
     7       O         -5.66298000  *   0.97123000  *   0.93663000  *
     8       H         -4.70372000  *   1.20958000  *   1.03461000  *
     9       C         -2.53767000  *   2.74073000  *   0.51080000  *
    10       C         -1.08373000  *   2.99627000  *   0.73964000  *
    11       O         -3.19327000  *   1.83297000  *   1.00281000  *
    12       O         -3.08261000  *   3.64391000  *  -0.32495000  *
    13       H         -0.68640000  *   2.23917000  *   1.42162000  *
    14       H         -0.94757000  *   3.98084000  *   1.19376000  *
    15       H         -0.54250000  *   2.93108000  *  -0.20745000  *
    16       H         -4.04178000  *   3.40531000  *  -0.42326000  *
 


          CARTESIAN COORDINATES 

    NO.       ATOM           X           Y           Z

     1         C         -7.6621      1.6196     -0.1270
     2         C         -6.2078      1.8741      0.1005
     3         H         -8.0569      2.3700     -0.8179
     4         H         -8.2040      1.6963      0.8189
     5         H         -7.8004      0.6306     -0.5706
     6         O         -5.5521      2.7817     -0.3918
     7         O         -5.6630      0.9712      0.9366
     8         H         -4.7037      1.2096      1.0346
     9         C         -2.5377      2.7407      0.5108
    10         C         -1.0837      2.9963      0.7396
    11         O         -3.1933      1.8330      1.0028
    12         O         -3.0826      3.6439     -0.3250
    13         H         -0.6864      2.2392      1.4216
    14         H         -0.9476      3.9808      1.1938
    15         H         -0.5425      2.9311     -0.2075
    16         H         -4.0418      3.4053     -0.4233

 General Reference for PM6:
 "Optimization of Parameters for Semiempirical Methods V: Modification of NDDO Approximations
 and Application to 70 Elements", J. J. P. Stewart, J. Mol. Mod., 13, 1173-1213 (2007)
 URL: https://link.springer.com/article/10.1007/s00894-007-0233-4

           Empirical Formula: C4 H8 O4  =    16 atoms



      MOLECULAR POINT GROUP   :   C2h 


 SINGLET STATE CALCULATION


      RHF CALCULATION, NO. OF DOUBLY OCCUPIED LEVELS = 24


          Geometry optimization using EF

          DIAGONAL MATRIX USED AS START HESSIAN

 CYCLE:     1 TIME:   0.047 TIME LEFT:  2.00D  GRAD.:    66.165 HEAT: -206.4101
 CYCLE:     2 TIME:   0.039 TIME LEFT:  2.00D  GRAD.:    73.699 HEAT: -208.0951
 CYCLE:     3 TIME:   0.086 TIME LEFT:  2.00D  GRAD.:    49.504 HEAT: -209.3267
 CYCLE:     4 TIME:   0.047 TIME LEFT:  2.00D  GRAD.:    52.353 HEAT: -209.4813
 CYCLE:     5 TIME:   0.031 TIME LEFT:  2.00D  GRAD.:    29.226 HEAT: -210.1555
 CYCLE:     6 TIME:   0.062 TIME LEFT:  2.00D  GRAD.:    17.877 HEAT: -210.4667
 CYCLE:     7 TIME:   0.023 TIME LEFT:  2.00D  GRAD.:    12.034 HEAT: -210.6535
 CYCLE:     8 TIME:   0.070 TIME LEFT:  2.00D  GRAD.:    26.180 HEAT: -210.6727
 CYCLE:     9 TIME:   0.031 TIME LEFT:  2.00D  GRAD.:     9.724 HEAT: -210.8538
 CYCLE:    10 TIME:   0.031 TIME LEFT:  2.00D  GRAD.:    16.096 HEAT: -210.9661
 CYCLE:    11 TIME:   0.039 TIME LEFT:  2.00D  GRAD.:    19.187 HEAT: -211.1346
 CYCLE:    12 TIME:   0.031 TIME LEFT:  2.00D  GRAD.:    17.934 HEAT: -211.3222
 CYCLE:    13 TIME:   0.031 TIME LEFT:  2.00D  GRAD.:    18.901 HEAT: -211.5241
 CYCLE:    14 TIME:   0.031 TIME LEFT:  2.00D  GRAD.:    25.867 HEAT: -211.6219
 CYCLE:    15 TIME:   0.031 TIME LEFT:  2.00D  GRAD.:    10.510 HEAT: -211.8567
 CYCLE:    16 TIME:   0.031 TIME LEFT:  2.00D  GRAD.:    15.204 HEAT: -211.9309
 CYCLE:    17 TIME:   0.023 TIME LEFT:  2.00D  GRAD.:    19.050 HEAT: -212.0434
 CYCLE:    18 TIME:   0.039 TIME LEFT:  2.00D  GRAD.:     9.855 HEAT: -212.2160
 CYCLE:    19 TIME:   0.031 TIME LEFT:  2.00D  GRAD.:     5.092 HEAT: -212.2725
 CYCLE:    20 TIME:   0.031 TIME LEFT:  2.00D  GRAD.:     5.661 HEAT: -212.2902
 CYCLE:    21 TIME:   0.031 TIME LEFT:  2.00D  GRAD.:     2.887 HEAT: -212.3105
 CYCLE:    22 TIME:   0.031 TIME LEFT:  2.00D  GRAD.:     2.326 HEAT: -212.3276
 CYCLE:    23 TIME:   0.031 TIME LEFT:  2.00D  GRAD.:     2.168 HEAT: -212.3427
 CYCLE:    24 TIME:   0.039 TIME LEFT:  2.00D  GRAD.:     1.747 HEAT: -212.3477
 CYCLE:    25 TIME:   0.031 TIME LEFT:  2.00D  GRAD.:     1.447 HEAT: -212.3523
 CYCLE:    26 TIME:   0.031 TIME LEFT:  2.00D  GRAD.:     1.352 HEAT: -212.3562
 CYCLE:    27 TIME:   0.031 TIME LEFT:  2.00D  GRAD.:     1.104 HEAT: -212.3588
 CYCLE:    28 TIME:   0.031 TIME LEFT:  2.00D  GRAD.:     0.894 HEAT: -212.3601
 CYCLE:    29 TIME:   0.023 TIME LEFT:  2.00D  GRAD.:     1.183 HEAT: -212.3627
 CYCLE:    30 TIME:   0.039 TIME LEFT:  2.00D  GRAD.:     1.388 HEAT: -212.3655
 CYCLE:    31 TIME:   0.031 TIME LEFT:  2.00D  GRAD.:     1.153 HEAT: -212.3688
 CYCLE:    32 TIME:   0.031 TIME LEFT:  2.00D  GRAD.:     0.861 HEAT: -212.3704
 CYCLE:    33 TIME:   0.031 TIME LEFT:  2.00D  GRAD.:     0.869 HEAT: -212.3727
 CYCLE:    34 TIME:   0.039 TIME LEFT:  2.00D  GRAD.:     0.815 HEAT: -212.3736
 CYCLE:    35 TIME:   0.031 TIME LEFT:  2.00D  GRAD.:     0.776 HEAT: -212.3752
 CYCLE:    36 TIME:   0.031 TIME LEFT:  2.00D  GRAD.:     0.714 HEAT: -212.3759
 CYCLE:    37 TIME:   0.031 TIME LEFT:  2.00D  GRAD.:     0.665 HEAT: -212.3779
 CYCLE:    38 TIME:   0.031 TIME LEFT:  2.00D  GRAD.:     0.343 HEAT: -212.3783
 CYCLE:    39 TIME:   0.031 TIME LEFT:  2.00D  GRAD.:     0.155 HEAT: -212.3785
 CYCLE:    40 TIME:   0.031 TIME LEFT:  2.00D  GRAD.:     0.074 HEAT: -212.3785
 CYCLE:    41 TIME:   0.031 TIME LEFT:  2.00D  GRAD.:     0.052 HEAT: -212.3785
 CYCLE:    42 TIME:   0.031 TIME LEFT:  2.00D  GRAD.:     0.061 HEAT: -212.3785
 CYCLE:    43 TIME:   0.031 TIME LEFT:  2.00D  GRAD.:     0.121 HEAT: -212.3786
 CYCLE:    44 TIME:   0.031 TIME LEFT:  2.00D  GRAD.:     0.179 HEAT: -212.3786
 CYCLE:    45 TIME:   0.031 TIME LEFT:  2.00D  GRAD.:     0.207 HEAT: -212.3787
 CYCLE:    46 TIME:   0.031 TIME LEFT:  2.00D  GRAD.:     0.039 HEAT: -212.3787

     GRADIENT =  0.03926 IS LESS THAN CUTOFF =  0.05000



 -------------------------------------------------------------------------------
 LARGE CHARGE=0 SINGLET  PM6 PRECISE
 dimer  kyseliny octovej



     GEOMETRY OPTIMISED USING EIGENVECTOR FOLLOWING (EF).     
     SCF FIELD WAS ACHIEVED                                   


                              PM6 CALCULATION
                                                       MOPAC v22.1.0 Windows
                                                       Sun Jan  7 21:10:58 2024




          FINAL HEAT OF FORMATION =       -212.37870 KCAL/MOL =    -888.59247 KJ/MOL


          COSMO AREA              =        158.89 SQUARE ANGSTROMS
          COSMO VOLUME            =        143.62 CUBIC ANGSTROMS

          GRADIENT NORM           =          0.03926          =       0.00981 PER ATOM
          IONIZATION POTENTIAL    =         11.484343 EV
          HOMO LUMO ENERGIES (EV) =        -11.484  0.410
          NO. OF FILLED LEVELS    =         24
          MOLECULAR WEIGHT        =        120.1048         POINT GROUP:  C2h 

          MOLECULAR DIMENSIONS (Angstroms)

            Atom       Atom       Distance
            H    13    H     3     8.07277
            H    14    H     5     3.46392
            H    15    H     4     3.03601


          SCF CALCULATIONS        =         51
 
          WALL-CLOCK TIME         =      1.727 SECONDS
          COMPUTATION TIME        =      9.656 SECONDS




   ATOM   CHEMICAL          X               Y               Z
  NUMBER   SYMBOL      (ANGSTROMS)     (ANGSTROMS)     (ANGSTROMS)
 
     1       C         -7.74502197  *   1.57911349  *  -0.12167756  *
     2       C         -6.30879558  *   1.92491953  *   0.03400719  *
     3       H         -8.24699642  *   2.26181708  *  -0.82581052  *
     4       H         -8.27807909  *   1.63109822  *   0.84240573  *
     5       H         -7.87465813  *   0.54828219  *  -0.49149348  *
     6       O         -5.72044763  *   2.85988468  *  -0.49194366  *
     7       O         -5.66925265  *   1.06801806  *   0.85513251  *
     8       H         -4.65953317  *   1.27976583  *   0.98890674  *
     9       C         -2.43679144  *   2.69021272  *   0.57774289  *
    10       C         -1.00070250  *   3.03640638  *   0.73382380  *
    11       O         -3.02531218  *   1.75555632  *   1.10405890  *
    12       O         -3.07608684  *   3.54648051  *  -0.24424950  *
    13       H         -0.49589217  *   2.34636257  *   1.42870469  *
    14       H         -0.87198231  *   4.06288814  *   1.11588616  *
    15       H         -0.46992071  *   2.99731913  *  -0.23212357  *
    16       H         -4.08583096  *   3.33477110  *  -0.37785312  *

                             CARTESIAN COORDINATES

   1    C       -7.745021973     1.579113490    -0.121677561
   2    C       -6.308795576     1.924919529     0.034007190
   3    H       -8.246996419     2.261817078    -0.825810519
   4    H       -8.278079089     1.631098216     0.842405732
   5    H       -7.874658126     0.548282189    -0.491493477
   6    O       -5.720447630     2.859884677    -0.491943663
   7    O       -5.669252651     1.068018058     0.855132512
   8    H       -4.659533169     1.279765831     0.988906740
   9    C       -2.436791437     2.690212716     0.577742895
  10    C       -1.000702496     3.036406380     0.733823804
  11    O       -3.025312181     1.755556317     1.104058899
  12    O       -3.076086843     3.546480506    -0.244249501
  13    H       -0.495892170     2.346362575     1.428704693
  14    H       -0.871982312     4.062888138     1.115886157
  15    H       -0.469920708     2.997319135    -0.232123567
  16    H       -4.085830963     3.334771101    -0.377853122


           Empirical Formula: C4 H8 O4  =    16 atoms



      MOLECULAR POINT GROUP   :   C2h 


                  EIGENVALUES  
 -32.45911 -32.15160 -30.64958 -30.47277 -27.54630 -27.18241 -22.00843 -21.47888
 -19.02653 -17.40198 -16.90536 -16.74243 -16.69656 -16.55759 -14.61935 -14.51006
 -14.20409 -14.04171 -14.02072 -13.30856 -12.36896 -12.31730 -11.71863 -11.48434
   0.40992   0.41385   1.55299   1.84018   2.75659   3.18642   3.52573   3.97994
   4.72032   4.72053   4.83698   4.89424   4.97392   5.57919   5.78823   5.83767


              NET ATOMIC CHARGES AND DIPOLE CONTRIBUTIONS

  ATOM NO.   TYPE          CHARGE      No. of ELECS.   s-Pop       p-Pop       
    1          C          -0.584340        4.5843     1.09681     3.48753
    2          C           0.707645        3.2924     1.08019     2.21217
    3          H           0.204319        0.7957     0.79568
    4          H           0.207394        0.7926     0.79261
    5          H           0.207443        0.7926     0.79256
    6          O          -0.597569        6.5976     1.84679     4.75078
    7          O          -0.530868        6.5309     1.81811     4.71275
    8          H           0.385974        0.6140     0.61403
    9          C           0.707646        3.2924     1.08019     2.21216
   10          C          -0.584343        4.5843     1.09681     3.48753
   11          O          -0.597566        6.5976     1.84679     4.75077
   12          O          -0.530865        6.5309     1.81812     4.71274
   13          H           0.204316        0.7957     0.79568
   14          H           0.207439        0.7926     0.79256
   15          H           0.207409        0.7926     0.79259
   16          H           0.385968        0.6140     0.61403
 DIPOLE           X         Y         Z       TOTAL
 POINT-CHG.     0.000     0.001     0.001     0.002
 HYBRID        -0.000     0.001     0.001     0.001
 SUM           -0.000     0.002     0.002     0.003


          ATOMIC ORBITAL ELECTRON POPULATIONS

     Atom    s        px        py        pz   
    1  C   1.09681   1.05113   1.21507   1.22133
    2  C   1.08019   0.83468   0.70724   0.67024
    3  H   0.79568
    4  H   0.79261
    5  H   0.79256
    6  O   1.84679   1.71468   1.44737   1.58873
    7  O   1.81811   1.44673   1.61297   1.65306
    8  H   0.61403
    9  C   1.08019   0.83465   0.70720   0.67031
   10  C   1.09681   1.05120   1.21495   1.22138
   11  O   1.84679   1.71456   1.44743   1.58878
   12  O   1.81812   1.44675   1.61328   1.65272
   13  H   0.79568
   14  H   0.79256
   15  H   0.79259
   16  H   0.61403
 *******************************************************************************
 **                                                                           **
 **                              MOPAC v22.1.0                                **
 **                                                                           **
 *******************************************************************************
 **          Digital Object Identifier (DOI): 10.5281/zenodo.6511958          **
 **    Visit the DOI location for information on how to cite this program.    **
 *******************************************************************************

                              PM6 CALCULATION RESULTS

 *******************************************************************************
 *  CALCULATION DONE:                                Sun Jan  7 21:10:58 2024  *
 *  PM6        - The PM6 Hamiltonian to be used
 *  OLDGEO     - PREVIOUS GEOMETRY TO BE USED
 *  PRECISE    - TIGHTER CRITERIA TO BE USED
 *  T=         - A TIME OF 172800.0 SECONDS REQUESTED
 *  DUMP=N     - RESTART FILE WRITTEN EVERY 7200.0 SECONDS REQUESTED
 *  THERMO     - THERMODYNAMIC QUANTITIES TO BE CALCULATED
 *******************************************************************************
OLDGEO PRECISE PM6 THERMO
 dimer kyseliny octovej

   ATOM   CHEMICAL          X               Y               Z
  NUMBER   SYMBOL      (ANGSTROMS)     (ANGSTROMS)     (ANGSTROMS)
 
     1       C         -7.74502197  *   1.57911349  *  -0.12167756  *
     2       C         -6.30879558  *   1.92491953  *   0.03400719  *
     3       H         -8.24699642  *   2.26181708  *  -0.82581052  *
     4       H         -8.27807909  *   1.63109822  *   0.84240573  *
     5       H         -7.87465813  *   0.54828219  *  -0.49149348  *
     6       O         -5.72044763  *   2.85988468  *  -0.49194366  *
     7       O         -5.66925265  *   1.06801806  *   0.85513251  *
     8       H         -4.65953317  *   1.27976583  *   0.98890674  *
     9       C         -2.43679144  *   2.69021272  *   0.57774289  *
    10       C         -1.00070250  *   3.03640638  *   0.73382380  *
    11       O         -3.02531218  *   1.75555632  *   1.10405890  *
    12       O         -3.07608684  *   3.54648051  *  -0.24424950  *
    13       H         -0.49589217  *   2.34636257  *   1.42870469  *
    14       H         -0.87198231  *   4.06288814  *   1.11588616  *
    15       H         -0.46992071  *   2.99731913  *  -0.23212357  *
    16       H         -4.08583096  *   3.33477110  *  -0.37785312  *
 


          CARTESIAN COORDINATES 

    NO.       ATOM           X           Y           Z

     1         C         -7.7450      1.5791     -0.1217
     2         C         -6.3088      1.9249      0.0340
     3         H         -8.2470      2.2618     -0.8258
     4         H         -8.2781      1.6311      0.8424
     5         H         -7.8747      0.5483     -0.4915
     6         O         -5.7204      2.8599     -0.4919
     7         O         -5.6693      1.0680      0.8551
     8         H         -4.6595      1.2798      0.9889
     9         C         -2.4368      2.6902      0.5777
    10         C         -1.0007      3.0364      0.7338
    11         O         -3.0253      1.7556      1.1041
    12         O         -3.0761      3.5465     -0.2442
    13         H         -0.4959      2.3464      1.4287
    14         H         -0.8720      4.0629      1.1159
    15         H         -0.4699      2.9973     -0.2321
    16         H         -4.0858      3.3348     -0.3779

 General Reference for PM6:
 "Optimization of Parameters for Semiempirical Methods V: Modification of NDDO Approximations
 and Application to 70 Elements", J. J. P. Stewart, J. Mol. Mod., 13, 1173-1213 (2007)
 URL: https://link.springer.com/article/10.1007/s00894-007-0233-4

           Empirical Formula: C4 H8 O4  =    16 atoms



      MOLECULAR POINT GROUP   :   C2h 


      RHF CALCULATION, NO. OF DOUBLY OCCUPIED LEVELS = 24



          HEAT OF FORMATION =    -212.378697 KCALS/MOLE


          CARTESIAN COORDINATE DERIVATIVES

   NUMBER  ATOM         X            Y            Z

     1       C      0.000148     0.001465     0.008220
     2       C     -0.000868     0.000750     0.005764
     3       H     -0.002073    -0.003596     0.004842
     4       H     -0.007292    -0.002310    -0.006070
     5       H      0.011394     0.006419    -0.006314
     6       O     -0.011827    -0.002966    -0.003614
     7       O     -0.001769     0.001246     0.006516
     8       H     -0.005823    -0.005125     0.004115
     9       C      0.005361    -0.006271    -0.008164
    10       C     -0.001253    -0.001316    -0.002796
    11       O     -0.010434     0.002325     0.002335
    12       O      0.005711     0.001986    -0.005798
    13       H      0.001492     0.004157     0.002877
    14       H     -0.002554    -0.004152    -0.000417
    15       H      0.006780     0.010863     0.004913
    16       H      0.013007    -0.003472    -0.006409
 


          GRADIENT NORM =   0.03918


          TIME FOR SCF CALCULATION =    0.02

          TIME FOR DERIVATIVES     =    0.02

          MOLECULAR WEIGHT =  120.10



          ROTATIONAL CONSTANTS IN CM(-1)

          A =    0.18849516   B =    0.02806055   C =    0.02464877



           PRINCIPAL MOMENTS OF INERTIA IN UNITS OF 10**(-40)*GRAM-CM**2

          A =      148.5065   B =      997.5837   C =     1135.6655


          ORIENTATION OF MOLECULE IN FORCE CALCULATION

    NO.       ATOM         X         Y         Z

     1          C      -3.4749    0.1031    0.0042
     2          C      -1.9894    0.1031    0.0042
     3          H      -3.8751    1.1296    0.0042
     4          H      -3.8771   -0.4198    0.8880
     5          H      -3.8789   -0.4230   -0.8768
     6          O      -1.2580    1.0831    0.0433
     7          O      -1.4845   -1.1460   -0.0454
     8          H      -0.4449   -1.1854   -0.0462
     9          C       1.9894   -0.1031   -0.0042
    10          C       3.4749   -0.1031   -0.0036
    11          O       1.2580   -1.0832   -0.0428
    12          O       1.4845    1.1460    0.0444
    13          H       3.8751   -1.1295   -0.0157
    14          H       3.8783    0.4119    0.8842
    15          H       3.8777    0.4310   -0.8804
    16          H       0.4449    1.1853    0.0453


    FIRST DERIVATIVES WILL BE USED IN THE CALCULATION OF SECOND DERIVATIVES

          ESTIMATED TIME TO COMPLETE CALCULATION =        6.00 SECONDS

    FOR POINT-GROUP C2h  THERE ARE   4 UNIQUE SYMMETRY FUNCTIONS.

 STEP:   1 TIME =     0.16 SECS, INTEGRAL =      0.16 TIME LEFT: 172799.80
 STEP:   2 TIME =     0.18 SECS, INTEGRAL =      0.34 TIME LEFT: 172799.62
 STEP:   3 TIME =     0.15 SECS, INTEGRAL =      0.49 TIME LEFT: 172799.48
 STEP:   4 TIME =     0.16 SECS, INTEGRAL =      0.66 TIME LEFT: 172799.31
 STEP:   5 TIME =     0.15 SECS, INTEGRAL =      0.80 TIME LEFT: 172799.16
 STEP:   6 TIME =     0.16 SECS, INTEGRAL =      0.97 TIME LEFT: 172799.00
 STEP:   7 TIME =     0.16 SECS, INTEGRAL =      1.12 TIME LEFT: 172798.84
 STEP:   8 TIME =     0.16 SECS, INTEGRAL =      1.28 TIME LEFT: 172798.69
 STEP:   9 TIME =     0.16 SECS, INTEGRAL =      1.44 TIME LEFT: 172798.53
 STEP:  10 TIME =     0.16 SECS, INTEGRAL =      1.59 TIME LEFT: 172798.38
 STEP:  11 TIME =     0.16 SECS, INTEGRAL =      1.75 TIME LEFT: 172798.22
 STEP:  12 TIME =     0.16 SECS, INTEGRAL =      1.91 TIME LEFT: 172798.05
 STEP:  13                       INTEGRAL =      1.91 TIME LEFT: 172798.05
 STEP:  14                       INTEGRAL =      1.91 TIME LEFT: 172798.05
 STEP:  15                       INTEGRAL =      1.91 TIME LEFT: 172798.05
 STEP:  16 TIME =     0.15 SECS, INTEGRAL =      2.06 TIME LEFT: 172797.91
 STEP:  17 TIME =     0.15 SECS, INTEGRAL =      2.21 TIME LEFT: 172797.76
 STEP:  18 TIME =     0.16 SECS, INTEGRAL =      2.38 TIME LEFT: 172797.59
 STEP:  19 TIME =     0.15 SECS, INTEGRAL =      2.52 TIME LEFT: 172797.45
 STEP:  20 TIME =     0.16 SECS, INTEGRAL =      2.68 TIME LEFT: 172797.29
 STEP:  21 TIME =     0.16 SECS, INTEGRAL =      2.84 TIME LEFT: 172797.13
 STEP:  22 TIME =     0.16 SECS, INTEGRAL =      3.00 TIME LEFT: 172796.97
 STEP:  23 TIME =     0.15 SECS, INTEGRAL =      3.15 TIME LEFT: 172796.82
 STEP:  24 TIME =     0.16 SECS, INTEGRAL =      3.31 TIME LEFT: 172796.66
 STEP:  25                       INTEGRAL =      3.31 TIME LEFT: 172796.66
 STEP:  26                       INTEGRAL =      3.31 TIME LEFT: 172796.66
 STEP:  27                       INTEGRAL =      3.31 TIME LEFT: 172796.66
 STEP:  28                       INTEGRAL =      3.31 TIME LEFT: 172796.66
 STEP:  29                       INTEGRAL =      3.31 TIME LEFT: 172796.66
 STEP:  30                       INTEGRAL =      3.31 TIME LEFT: 172796.66
 STEP:  31                       INTEGRAL =      3.31 TIME LEFT: 172796.66
 STEP:  32                       INTEGRAL =      3.31 TIME LEFT: 172796.66
 STEP:  33                       INTEGRAL =      3.31 TIME LEFT: 172796.66
 STEP:  34                       INTEGRAL =      3.31 TIME LEFT: 172796.66
 STEP:  35                       INTEGRAL =      3.31 TIME LEFT: 172796.66
 STEP:  36                       INTEGRAL =      3.31 TIME LEFT: 172796.66
 STEP:  37                       INTEGRAL =      3.31 TIME LEFT: 172796.66
 STEP:  38                       INTEGRAL =      3.31 TIME LEFT: 172796.66
 STEP:  39                       INTEGRAL =      3.31 TIME LEFT: 172796.66
 STEP:  40                       INTEGRAL =      3.31 TIME LEFT: 172796.66
 STEP:  41                       INTEGRAL =      3.31 TIME LEFT: 172796.66
 STEP:  42                       INTEGRAL =      3.31 TIME LEFT: 172796.66
 STEP:  43                       INTEGRAL =      3.31 TIME LEFT: 172796.66
 STEP:  44                       INTEGRAL =      3.31 TIME LEFT: 172796.66
 STEP:  45                       INTEGRAL =      3.31 TIME LEFT: 172796.66
 STEP:  46                       INTEGRAL =      3.31 TIME LEFT: 172796.66
 STEP:  47                       INTEGRAL =      3.31 TIME LEFT: 172796.66
 STEP:  48                       INTEGRAL =      3.31 TIME LEFT: 172796.66

(To convert to Hartree/Bohr^2, multiply by (10^(-21) x N x a0^2)/(4.184 x 627.51) =  0.0642)


           FORCE MATRIX IN MILLIDYNES/ANGSTROM


                  C  1       C  2       H  3       H  4       H  5       O  6
 ------------------------------------------------------------------------------
     C    1  11.691535
     C    2   3.896899  17.540458
     H    3   3.465409   0.716464   4.202130
     H    4   3.442105   0.725893   0.415865   4.182623
     H    5   3.444390   0.724333   0.414945   0.426329   4.182623
     O    6   1.117745  10.493418   0.067254   0.065996   0.065676  12.659197
     O    7   1.043884   5.033901   0.066539   0.056744   0.056757   2.046337
     H    8   0.137834   1.218495   0.023448   0.021150   0.021137   0.307454
     C    9   0.082428   0.523044   0.012610   0.011201   0.011201   0.423752
     C   10   0.020644   0.082316   0.004099   0.004309   0.004309   0.072807
     O   11   0.072686   0.423323   0.011165   0.011954   0.011954   0.243020
     O   12   0.073899   0.407855   0.012700   0.010644   0.010644   0.543157
     H   13   0.004068   0.012609   0.000727   0.000991   0.000991   0.011102
     H   14   0.004310   0.011407   0.000997   0.001054   0.000842   0.012117
     H   15   0.004299   0.011229   0.001002   0.000842   0.001054   0.011982
     H   16   0.104960   0.549050   0.020528   0.015363   0.015363   0.408560


                  O  7       H  8       C  9       C 10       O 11       O 12
 ------------------------------------------------------------------------------
     O    7   8.602618
     H    8   2.506361   3.020509
     C    9   0.408277   0.549826  17.540458
     C   10   0.073897   0.104995   3.896899  11.691535
     O   11   0.543247   0.408986  10.493418   1.117745  12.659197
     O   12   0.229955   0.214252   5.033901   1.043884   2.046337   8.602618
     H   13   0.012658   0.020417   0.716464   3.465409   0.067254   0.066539
     H   14   0.010673   0.015250   0.725893   3.442105   0.065996   0.056744
     H   15   0.010636   0.015319   0.724333   3.444390   0.065676   0.056757
     H   16   0.214102   0.170860   1.218495   0.137834   0.307454   2.506361


                  H 13       H 14       H 15       H 16
 ------------------------------------------------------
     H   13   4.202130
     H   14   0.415865   4.182623
     H   15   0.414945   0.426329   4.182623
     H   16   0.023448   0.021150   0.021137   3.020509


          HEAT OF FORMATION =    -212.378697 KCALS/MOLE

          ZERO POINT ENERGY      69.631 KCAL/MOL

         NOTE: SYSTEM IS NOT A GROUND STATE, THEREFORE ZERO POINT
         ENERGY IS NOT MEANINGFULL. ZERO POINT ENERGY PRINTED
         DOES NOT INCLUDE THE  1 IMAGINARY FREQUENCIES


           NORMAL COORDINATE ANALYSIS (Total motion = 1 Angstrom)


   Root No.       1         2         3         4         5         6         7         8

                 1 Au      2 Au      1 Bg      1 Ag      2 Ag      1 Bu      2 Bg      3 Au  

                 -65.2      55.4      81.4     133.4     154.7     191.3     331.8     346.2
  
           1    0.0000   -0.0000   -0.0000   -0.0134    0.0623    0.0051    0.0000   -0.0000
           2   -0.0028    0.0005   -0.0020    0.0286    0.0134    0.0653   -0.0002    0.0003
           3    0.0701   -0.0137    0.0512    0.0011    0.0005    0.0026    0.0033   -0.0078
           4   -0.0000   -0.0000   -0.0000   -0.0134    0.0616    0.0036    0.0000    0.0000
           5    0.0001    0.0005    0.0010   -0.0318   -0.0195   -0.0066    0.0002   -0.0002
           6   -0.0022   -0.0127   -0.0254   -0.0012   -0.0008   -0.0003   -0.0039    0.0041
           7    0.0000   -0.0000    0.0000    0.0265    0.0876    0.0553   -0.0000    0.0000
           8   -0.0047    0.0009   -0.0037    0.0435    0.0238    0.0852    0.0058   -0.0060
           9    0.1196   -0.0239    0.0926    0.0017    0.0010    0.0033   -0.1483    0.1512
          10    0.0420   -0.0052    0.0458   -0.0313    0.0483   -0.0187    0.0200   -0.0237
          11   -0.0313    0.0036   -0.0218    0.0394    0.0249    0.0791    0.1217   -0.1277
          12    0.0725   -0.0146    0.0610   -0.0009    0.0010   -0.0005    0.0909   -0.1012
          13   -0.0420    0.0052   -0.0458   -0.0313    0.0483   -0.0187   -0.0199    0.0237
          14    0.0255   -0.0025    0.0169    0.0392    0.0249    0.0788   -0.1285    0.1353
          15    0.0747   -0.0149    0.0625    0.0040    0.0010    0.0067    0.0810   -0.0908
          16   -0.0000   -0.0000   -0.0000    0.0304    0.0587    0.0349    0.0000    0.0000
          17    0.0015    0.0059    0.0025   -0.0686   -0.0131   -0.0303   -0.0004   -0.0001
          18   -0.0382   -0.1500   -0.0629   -0.0027   -0.0005   -0.0012    0.0097    0.0027
          19   -0.0000    0.0000   -0.0000   -0.0695    0.0467   -0.0400   -0.0000   -0.0000
          20    0.0010   -0.0066    0.0019   -0.0594   -0.0172   -0.0255    0.0006   -0.0001
          21   -0.0255    0.1669   -0.0490   -0.0023   -0.0007   -0.0010   -0.0153    0.0026
          22   -0.0000    0.0000   -0.0000   -0.0772    0.0557   -0.0403   -0.0000   -0.0000
          23    0.0026   -0.0040    0.0023   -0.0859   -0.0279   -0.0561    0.0005   -0.0001
          24   -0.0652    0.1005   -0.0601   -0.0033   -0.0011   -0.0022   -0.0128    0.0022
          25    0.0000   -0.0000    0.0000    0.0134   -0.0616    0.0036   -0.0000    0.0000
          26    0.0001    0.0005   -0.0010    0.0318    0.0195   -0.0066   -0.0002   -0.0002
          27   -0.0022   -0.0127    0.0254    0.0012    0.0008   -0.0003    0.0039    0.0041
          28    0.0000   -0.0000    0.0000    0.0134   -0.0623    0.0051   -0.0000   -0.0000
          29   -0.0028    0.0005    0.0020   -0.0286   -0.0134    0.0653    0.0001    0.0003
          30    0.0701   -0.0137   -0.0512   -0.0011   -0.0005    0.0026   -0.0033   -0.0078
          31   -0.0000   -0.0000    0.0000   -0.0304   -0.0587    0.0349   -0.0000   -0.0000
          32    0.0015    0.0059   -0.0025    0.0686    0.0131   -0.0303    0.0004   -0.0001
          33   -0.0382   -0.1500    0.0629    0.0027    0.0005   -0.0012   -0.0097    0.0027
          34   -0.0000    0.0000    0.0000    0.0695   -0.0467   -0.0400    0.0000    0.0000
          35    0.0010   -0.0066   -0.0019    0.0594    0.0172   -0.0255   -0.0006   -0.0001
          36   -0.0255    0.1669    0.0490    0.0023    0.0007   -0.0010    0.0153    0.0026
          37    0.0000   -0.0000   -0.0000   -0.0265   -0.0876    0.0553    0.0000    0.0000
          38   -0.0047    0.0009    0.0037   -0.0435   -0.0238    0.0852   -0.0058   -0.0060
          39    0.1196   -0.0239   -0.0926   -0.0017   -0.0010    0.0034    0.1483    0.1512
          40   -0.0420    0.0052    0.0458    0.0313   -0.0483   -0.0187    0.0200    0.0237
          41    0.0256   -0.0025   -0.0169   -0.0392   -0.0249    0.0788    0.1286    0.1353
          42    0.0747   -0.0149   -0.0625   -0.0040   -0.0010    0.0067   -0.0811   -0.0908
          43    0.0420   -0.0052   -0.0458    0.0313   -0.0483   -0.0187   -0.0200   -0.0237
          44   -0.0313    0.0036    0.0218   -0.0394   -0.0249    0.0791   -0.1218   -0.1277
          45    0.0725   -0.0146   -0.0610    0.0009   -0.0010   -0.0005   -0.0909   -0.1012
          46   -0.0000    0.0000    0.0000    0.0772   -0.0557   -0.0403    0.0000    0.0000
          47    0.0026   -0.0040   -0.0023    0.0859    0.0279   -0.0561   -0.0005   -0.0001
          48   -0.0652    0.1005    0.0601    0.0033    0.0011   -0.0022    0.0128    0.0022


   Root No.       9        10        11        12        13        14        15        16

                 3 Ag      2 Bu      4 Au      3 Bu      3 Bg      4 Ag      4 Bg      5 Au  

                 404.1     448.3     538.0     539.3     543.9     552.3     630.3     689.1
  
           1    0.0133   -0.0114    0.0000   -0.0473    0.0000    0.0420    0.0000    0.0000
           2   -0.0417    0.0350    0.0001   -0.0039   -0.0001    0.0043   -0.0002   -0.0003
           3   -0.0017    0.0014   -0.0016   -0.0002    0.0009    0.0002    0.0058    0.0086
           4    0.0144   -0.0112    0.0000   -0.0397    0.0000    0.0360    0.0000    0.0000
           5    0.0332   -0.0323   -0.0028    0.0158    0.0029   -0.0096   -0.0009   -0.0009
           6    0.0013   -0.0013    0.0720    0.0006   -0.0752   -0.0004    0.0228    0.0241
           7   -0.0637    0.0647    0.0000   -0.0856    0.0000    0.0743    0.0000    0.0000
           8   -0.0752    0.0678    0.0028   -0.0211   -0.0029    0.0186    0.0004    0.0006
           9   -0.0030    0.0027   -0.0709   -0.0008    0.0712    0.0007   -0.0087   -0.0148
          10    0.0495   -0.0462   -0.0928   -0.0314    0.0966    0.0289   -0.0219   -0.0290
          11   -0.0702    0.0638    0.0156   -0.0211   -0.0143    0.0186    0.0008    0.0002
          12   -0.0003    0.0002   -0.0415   -0.0017    0.0437    0.0013   -0.0057   -0.0080
          13    0.0495   -0.0462    0.0928   -0.0315   -0.0966    0.0289    0.0219    0.0290
          14   -0.0699    0.0636   -0.0123   -0.0212    0.0107    0.0187   -0.0003    0.0005
          15   -0.0054    0.0049   -0.0426    0.0001    0.0447    0.0002   -0.0058   -0.0080
          16    0.0374   -0.0359    0.0000    0.0528   -0.0000   -0.0543    0.0000   -0.0000
          17    0.0125   -0.0127    0.0009   -0.0524   -0.0010    0.0528    0.0003    0.0007
          18    0.0005   -0.0005   -0.0225   -0.0021    0.0259    0.0021   -0.0068   -0.0173
          19   -0.0378    0.0509   -0.0000    0.0196    0.0000   -0.0305   -0.0000   -0.0000
          20    0.0101   -0.0058    0.0005    0.0398   -0.0007   -0.0419    0.0012    0.0011
          21    0.0004   -0.0002   -0.0134    0.0016    0.0168   -0.0016   -0.0296   -0.0272
          22   -0.0507    0.0586   -0.0000    0.0366    0.0000   -0.0444    0.0000    0.0000
          23   -0.0498    0.0661    0.0045    0.1215   -0.0038   -0.1406   -0.0150   -0.0137
          24   -0.0020    0.0026   -0.1136    0.0048    0.0957   -0.0055    0.3807    0.3477
          25   -0.0144   -0.0112    0.0000   -0.0397    0.0000   -0.0360   -0.0000    0.0000
          26   -0.0332   -0.0323   -0.0028    0.0158   -0.0029    0.0096    0.0009   -0.0009
          27   -0.0013   -0.0013    0.0720    0.0006    0.0752    0.0004   -0.0228    0.0241
          28   -0.0133   -0.0114   -0.0000   -0.0473    0.0000   -0.0420   -0.0000    0.0000
          29    0.0417    0.0350    0.0001   -0.0039    0.0001   -0.0043    0.0002   -0.0003
          30    0.0017    0.0014   -0.0016   -0.0002   -0.0009   -0.0002   -0.0058    0.0086
          31   -0.0374   -0.0359   -0.0000    0.0528    0.0000    0.0543   -0.0000   -0.0000
          32   -0.0125   -0.0127    0.0009   -0.0524    0.0010   -0.0528   -0.0003    0.0007
          33   -0.0005   -0.0005   -0.0225   -0.0021   -0.0259   -0.0021    0.0068   -0.0173
          34    0.0378    0.0509    0.0000    0.0196   -0.0000    0.0305    0.0000   -0.0000
          35   -0.0101   -0.0058    0.0005    0.0398    0.0007    0.0419   -0.0012    0.0011
          36   -0.0004   -0.0002   -0.0134    0.0015   -0.0168    0.0016    0.0296   -0.0272
          37    0.0637    0.0647   -0.0000   -0.0856    0.0000   -0.0743   -0.0000   -0.0000
          38    0.0752    0.0678    0.0028   -0.0211    0.0029   -0.0186   -0.0004    0.0006
          39    0.0030    0.0027   -0.0709   -0.0008   -0.0712   -0.0007    0.0087   -0.0148
          40   -0.0495   -0.0462    0.0928   -0.0314    0.0966   -0.0289   -0.0219    0.0290
          41    0.0699    0.0636   -0.0123   -0.0212   -0.0107   -0.0187    0.0003    0.0005
          42    0.0054    0.0048   -0.0426    0.0000   -0.0447   -0.0002    0.0058   -0.0080
          43   -0.0495   -0.0462   -0.0928   -0.0315   -0.0966   -0.0289    0.0219   -0.0290
          44    0.0702    0.0638    0.0156   -0.0211    0.0143   -0.0186   -0.0008    0.0002
          45    0.0003    0.0002   -0.0415   -0.0017   -0.0437   -0.0013    0.0057   -0.0080
          46    0.0507    0.0586   -0.0000    0.0366   -0.0000    0.0444   -0.0000    0.0000
          47    0.0498    0.0661    0.0045    0.1215    0.0038    0.1406    0.0150   -0.0137
          48    0.0020    0.0026   -0.1136    0.0047   -0.0957    0.0055   -0.3807    0.3477


   Root No.      17        18        19        20        21        22        23        24

                 4 Bu      5 Ag      5 Bu      6 Ag      5 Bg      6 Au      6 Bu      7 Ag  

                 989.0     989.4    1019.1    1025.8    1045.3    1048.5    1139.6    1156.6
  
           1    0.0219   -0.0165    0.0510   -0.0570    0.0000   -0.0000    0.0032   -0.0082
           2   -0.0354    0.0364    0.0158   -0.0150    0.0015   -0.0016   -0.0135    0.0119
           3   -0.0014    0.0013    0.0006   -0.0006   -0.0409    0.0412   -0.0005    0.0004
           4   -0.0033    0.0018   -0.0198    0.0235   -0.0000   -0.0000   -0.0031    0.0096
           5   -0.0106    0.0116   -0.0051    0.0050   -0.0016    0.0016    0.0087   -0.0097
           6   -0.0004    0.0004   -0.0002    0.0003    0.0395   -0.0406    0.0003   -0.0004
           7    0.2135   -0.2116   -0.0438    0.0306   -0.0001    0.0000    0.0657   -0.0603
           8    0.0543   -0.0543   -0.0246    0.0212   -0.0032    0.0031    0.0156   -0.0141
           9    0.0021   -0.0022   -0.0010    0.0009    0.0778   -0.0779    0.0006   -0.0006
          10   -0.0638    0.0713    0.1032   -0.1057    0.1554   -0.1569   -0.0403    0.0373
          11    0.0378   -0.0381   -0.0219    0.0199   -0.0010    0.0016    0.0025    0.0020
          12   -0.0020    0.0028    0.0108   -0.0116    0.0502   -0.0502   -0.0130    0.0156
          13   -0.0638    0.0715    0.1032   -0.1060   -0.1552    0.1568   -0.0403    0.0374
          14    0.0375   -0.0378   -0.0210    0.0189   -0.0032    0.0024    0.0014    0.0032
          15    0.0050   -0.0061   -0.0125    0.0133    0.0501   -0.0501    0.0132   -0.0155
          16   -0.0018    0.0018   -0.0207    0.0230   -0.0000    0.0000    0.0128   -0.0132
          17   -0.0133    0.0094   -0.0253    0.0270    0.0002   -0.0002    0.0198   -0.0230
          18   -0.0005    0.0003   -0.0010    0.0011   -0.0064    0.0065    0.0008   -0.0009
          19   -0.0164    0.0165   -0.0133    0.0148    0.0000   -0.0000   -0.0145    0.0123
          20    0.0403   -0.0367    0.0145   -0.0184    0.0001   -0.0002   -0.0339    0.0360
          21    0.0016   -0.0015    0.0006   -0.0007   -0.0034    0.0042   -0.0013    0.0014
          22   -0.0194    0.0157    0.0051   -0.0004    0.0000   -0.0000    0.0397   -0.0412
          23   -0.0098    0.0083    0.1113   -0.1039    0.0003   -0.0000    0.2607   -0.2609
          24   -0.0004    0.0003    0.0044   -0.0041   -0.0056    0.0000    0.0103   -0.0103
          25   -0.0033   -0.0018   -0.0198   -0.0235    0.0000   -0.0000   -0.0031   -0.0096
          26   -0.0106   -0.0116   -0.0051   -0.0050    0.0016    0.0016    0.0087    0.0097
          27   -0.0004   -0.0004   -0.0002   -0.0002   -0.0395   -0.0406    0.0003    0.0004
          28    0.0219    0.0165    0.0510    0.0570   -0.0000    0.0000    0.0032    0.0082
          29   -0.0354   -0.0365    0.0158    0.0150   -0.0015   -0.0016   -0.0135   -0.0119
          30   -0.0014   -0.0013    0.0006    0.0006    0.0409    0.0412   -0.0005   -0.0004
          31   -0.0018   -0.0018   -0.0207   -0.0230    0.0000   -0.0000    0.0128    0.0132
          32   -0.0133   -0.0095   -0.0253   -0.0270   -0.0002   -0.0003    0.0198    0.0230
          33   -0.0005   -0.0003   -0.0010   -0.0011    0.0064    0.0065    0.0008    0.0009
          34   -0.0163   -0.0165   -0.0133   -0.0148   -0.0000    0.0000   -0.0145   -0.0123
          35    0.0403    0.0367    0.0145    0.0184   -0.0001   -0.0002   -0.0339   -0.0360
          36    0.0016    0.0015    0.0006    0.0007    0.0033    0.0042   -0.0013   -0.0014
          37    0.2133    0.2118   -0.0438   -0.0306    0.0001   -0.0000    0.0657    0.0603
          38    0.0542    0.0544   -0.0246   -0.0212    0.0032    0.0030    0.0156    0.0141
          39    0.0021    0.0022   -0.0009   -0.0009   -0.0778   -0.0779    0.0006    0.0006
          40   -0.0638   -0.0715    0.1032    0.1059    0.1552    0.1569   -0.0403   -0.0374
          41    0.0375    0.0378   -0.0210   -0.0189    0.0032    0.0024    0.0014   -0.0032
          42    0.0050    0.0061   -0.0125   -0.0133   -0.0501   -0.0501    0.0132    0.0155
          43   -0.0638   -0.0714    0.1032    0.1058   -0.1553   -0.1569   -0.0403   -0.0373
          44    0.0377    0.0381   -0.0219   -0.0199    0.0010    0.0015    0.0025   -0.0020
          45   -0.0020   -0.0028    0.0108    0.0116   -0.0502   -0.0502   -0.0130   -0.0156
          46   -0.0193   -0.0158    0.0051    0.0004   -0.0000    0.0000    0.0397    0.0412
          47   -0.0098   -0.0083    0.1113    0.1040   -0.0003    0.0000    0.2607    0.2609
          48   -0.0004   -0.0003    0.0044    0.0041    0.0056    0.0000    0.0103    0.0103


   Root No.      25        26        27        28        29        30        31        32

                 7 Bu      8 Ag      6 Bg      7 Au      9 Ag      8 Bu     10 Ag      9 Bu  

                1244.1    1244.5    1249.4    1249.9    1324.7    1327.8    1331.8    1373.9
  
           1   -0.0174    0.0162   -0.0000   -0.0000   -0.0082   -0.0339   -0.0365   -0.0312
           2   -0.0215    0.0219    0.0006    0.0006   -0.0036    0.0075    0.0124    0.0156
           3   -0.0008    0.0008   -0.0168   -0.0164   -0.0001    0.0003    0.0005    0.0006
           4    0.0064   -0.0049    0.0000    0.0000   -0.0319    0.0007    0.0245    0.0817
           5   -0.0051    0.0061    0.0001    0.0001    0.0436    0.0019   -0.0306   -0.0711
           6   -0.0002    0.0003   -0.0029   -0.0026    0.0017    0.0001   -0.0012   -0.0028
           7   -0.0175    0.0198   -0.0001    0.0000    0.1430    0.1467    0.0807   -0.0855
           8   -0.0137    0.0152   -0.0077   -0.0077    0.0623    0.0728    0.0468   -0.0269
           9   -0.0006    0.0015    0.1960    0.1951    0.0024    0.0028    0.0017   -0.0011
          10    0.0777   -0.0746   -0.0783   -0.0775    0.0795    0.1173    0.0914   -0.0116
          11    0.1347   -0.1311    0.1154    0.1151   -0.0335   -0.0863   -0.0819   -0.0340
          12    0.1346   -0.1311    0.0252    0.0257    0.0245    0.0129    0.0006   -0.0304
          13    0.0777   -0.0741    0.0787    0.0775    0.0796    0.1173    0.0914   -0.0116
          14    0.1449   -0.1419   -0.1159   -0.1167   -0.0318   -0.0851   -0.0818   -0.0362
          15   -0.1236    0.1206    0.0152    0.0165   -0.0269   -0.0196   -0.0069    0.0276
          16    0.0025   -0.0022    0.0000    0.0000   -0.0000    0.0003    0.0014   -0.0032
          17    0.0020   -0.0034    0.0000    0.0000   -0.0068    0.0007    0.0066    0.0027
          18    0.0001   -0.0001    0.0004   -0.0005   -0.0004   -0.0000    0.0001    0.0001
          19   -0.0032    0.0035   -0.0000   -0.0000    0.0189    0.0003   -0.0134   -0.0293
          20   -0.0003    0.0011    0.0001    0.0000   -0.0194   -0.0017    0.0120    0.0376
          21   -0.0000    0.0000   -0.0009   -0.0003   -0.0006   -0.0000    0.0006    0.0015
          22    0.0050   -0.0081    0.0000    0.0000   -0.0372    0.0042    0.0312    0.0228
          23    0.0240   -0.0305    0.0001   -0.0001   -0.0565    0.0020    0.0494    0.1189
          24    0.0010   -0.0013   -0.0002    0.0026   -0.0021    0.0001    0.0021    0.0047
          25    0.0063    0.0049   -0.0000   -0.0000    0.0319    0.0006   -0.0245    0.0817
          26   -0.0051   -0.0061   -0.0001    0.0001   -0.0436    0.0020    0.0306   -0.0711
          27   -0.0002   -0.0003    0.0029   -0.0026   -0.0017    0.0001    0.0012   -0.0028
          28   -0.0174   -0.0162    0.0000    0.0000    0.0082   -0.0338    0.0365   -0.0312
          29   -0.0215   -0.0219   -0.0006    0.0006    0.0036    0.0075   -0.0124    0.0156
          30   -0.0008   -0.0008    0.0168   -0.0164    0.0001    0.0003   -0.0005    0.0006
          31    0.0025    0.0022   -0.0000   -0.0000    0.0000    0.0003   -0.0014   -0.0032
          32    0.0020    0.0034   -0.0000    0.0000    0.0068    0.0007   -0.0066    0.0027
          33    0.0001    0.0001   -0.0004   -0.0005    0.0004    0.0001   -0.0001    0.0001
          34   -0.0032   -0.0035    0.0000    0.0000   -0.0189    0.0003    0.0134   -0.0293
          35   -0.0003   -0.0011   -0.0001    0.0000    0.0194   -0.0017   -0.0120    0.0376
          36   -0.0000   -0.0000    0.0009   -0.0003    0.0006   -0.0001   -0.0006    0.0015
          37   -0.0175   -0.0199    0.0001    0.0000   -0.1429    0.1467   -0.0808   -0.0855
          38   -0.0137   -0.0153    0.0077   -0.0077   -0.0622    0.0728   -0.0469   -0.0269
          39   -0.0005   -0.0013   -0.1959    0.1952   -0.0024    0.0029   -0.0017   -0.0010
          40    0.0776    0.0742   -0.0787    0.0775   -0.0795    0.1173   -0.0915   -0.0116
          41    0.1447    0.1419    0.1160   -0.1168    0.0318   -0.0850    0.0819   -0.0362
          42   -0.1235   -0.1207   -0.0153    0.0166    0.0269   -0.0196    0.0070    0.0276
          43    0.0776    0.0746    0.0783   -0.0775   -0.0794    0.1173   -0.0914   -0.0116
          44    0.1346    0.1314   -0.1153    0.1150    0.0335   -0.0863    0.0819   -0.0340
          45    0.1345    0.1313   -0.0251    0.0256   -0.0245    0.0128   -0.0006   -0.0304
          46    0.0050    0.0081   -0.0000    0.0000    0.0372    0.0042   -0.0312    0.0228
          47    0.0239    0.0306   -0.0001   -0.0001    0.0565    0.0019   -0.0494    0.1189
          48    0.0009    0.0013    0.0002    0.0026    0.0021    0.0000   -0.0021    0.0047


   Root No.      33        34        35        36        37        38        39        40

                11 Ag     10 Bu     12 Ag     11 Bu      7 Bg      8 Au     13 Ag     12 Bu  

                1732.3    1776.6    2242.5    2334.8    2660.8    2661.2    2679.5    2679.8
  
           1   -0.0237   -0.0203    0.0003    0.0021   -0.0000   -0.0000   -0.0006   -0.0007
           2   -0.0046   -0.0098   -0.0031   -0.0003    0.0011    0.0011   -0.0244   -0.0244
           3   -0.0002   -0.0004   -0.0001   -0.0000   -0.0275   -0.0276   -0.0010   -0.0010
           4    0.1115    0.1088    0.0006   -0.0091    0.0000    0.0000   -0.0004   -0.0004
           5    0.0836    0.1300    0.0277    0.0015    0.0001    0.0001   -0.0012   -0.0011
           6    0.0033    0.0051    0.0011    0.0001   -0.0011   -0.0011   -0.0001   -0.0001
           7    0.0051    0.0230    0.0080    0.0029    0.0000   -0.0000   -0.0907   -0.0903
           8   -0.0035   -0.0020    0.0007   -0.0087    0.0005    0.0005    0.2051    0.2041
           9   -0.0001   -0.0001    0.0000   -0.0003   -0.0114   -0.0115    0.0080    0.0080
          10   -0.0304   -0.0379   -0.0038    0.0034   -0.0953   -0.0951    0.0510    0.0507
          11    0.0159    0.0263    0.0035    0.0055   -0.1168   -0.1165    0.0523    0.0519
          12   -0.0166   -0.0167   -0.0004   -0.0082    0.1735    0.1732   -0.1014   -0.1007
          13   -0.0304   -0.0379   -0.0038    0.0034    0.0954    0.0952    0.0510    0.0507
          14    0.0146    0.0249    0.0035    0.0049    0.1029    0.1026    0.0442    0.0439
          15    0.0178    0.0187    0.0007    0.0086    0.1822    0.1818    0.1050    0.1045
          16   -0.0503   -0.0629   -0.0075    0.0005    0.0000    0.0000    0.0004    0.0003
          17   -0.0648   -0.0835   -0.0117    0.0028    0.0000    0.0000    0.0002    0.0002
          18   -0.0025   -0.0033   -0.0005    0.0001    0.0001   -0.0000    0.0000    0.0000
          19   -0.0009   -0.0028   -0.0211   -0.0226   -0.0000   -0.0000   -0.0002   -0.0001
          20   -0.0027   -0.0133   -0.0032    0.0017    0.0000    0.0000    0.0001    0.0001
          21   -0.0001   -0.0005   -0.0001    0.0001   -0.0001   -0.0001   -0.0000   -0.0000
          22   -0.0872    0.0417    0.4074    0.4242   -0.0000   -0.0000    0.0001   -0.0015
          23    0.1449    0.0543   -0.0816   -0.0870    0.0000   -0.0000   -0.0001    0.0005
          24    0.0057    0.0021   -0.0032   -0.0035    0.0001    0.0006   -0.0000    0.0000
          25   -0.1115    0.1088   -0.0006   -0.0091   -0.0000   -0.0000    0.0004   -0.0004
          26   -0.0836    0.1300   -0.0277    0.0015   -0.0001    0.0000    0.0012   -0.0011
          27   -0.0033    0.0051   -0.0011    0.0001    0.0011   -0.0011    0.0001   -0.0000
          28    0.0237   -0.0203   -0.0003    0.0021    0.0000   -0.0000    0.0006   -0.0007
          29    0.0046   -0.0098    0.0031   -0.0003   -0.0011    0.0011    0.0243   -0.0245
          30    0.0002   -0.0004    0.0001   -0.0000    0.0275   -0.0276    0.0010   -0.0010
          31    0.0503   -0.0629    0.0075    0.0005   -0.0000   -0.0000   -0.0004    0.0003
          32    0.0648   -0.0835    0.0117    0.0028   -0.0000   -0.0000   -0.0002    0.0002
          33    0.0025   -0.0033    0.0005    0.0001   -0.0001   -0.0000   -0.0000    0.0000
          34    0.0009   -0.0028    0.0211   -0.0226    0.0000    0.0000    0.0002   -0.0001
          35    0.0027   -0.0133    0.0032    0.0017   -0.0000   -0.0000   -0.0001    0.0001
          36    0.0001   -0.0005    0.0001    0.0001    0.0001   -0.0001    0.0000    0.0000
          37   -0.0051    0.0230   -0.0080    0.0029   -0.0000   -0.0000    0.0905   -0.0906
          38    0.0035   -0.0020   -0.0007   -0.0086   -0.0005    0.0004   -0.2045    0.2047
          39    0.0001   -0.0001   -0.0000   -0.0003    0.0114   -0.0116   -0.0080    0.0081
          40    0.0304   -0.0379    0.0038    0.0034   -0.0953    0.0952   -0.0509    0.0509
          41   -0.0146    0.0249   -0.0035    0.0049   -0.1028    0.1026   -0.0441    0.0440
          42   -0.0178    0.0187   -0.0007    0.0086   -0.1820    0.1819   -0.1047    0.1048
          43    0.0304   -0.0379    0.0038    0.0034    0.0952   -0.0952   -0.0508    0.0509
          44   -0.0159    0.0263   -0.0035    0.0055    0.1167   -0.1166   -0.0521    0.0521
          45    0.0166   -0.0167    0.0004   -0.0082   -0.1733    0.1733    0.1011   -0.1010
          46    0.0872    0.0417   -0.4074    0.4242    0.0000    0.0000   -0.0001   -0.0015
          47   -0.1449    0.0543    0.0816   -0.0870   -0.0000   -0.0000    0.0001    0.0005
          48   -0.0057    0.0021    0.0032   -0.0034   -0.0001    0.0006    0.0000    0.0000


   Root No.      41        42

                13 Bu     14 Ag  

                2770.3    2770.9
  
           1    0.0124   -0.0119
           2   -0.0010    0.0011
           3   -0.0000    0.0001
           4    0.0042   -0.0039
           5    0.0004   -0.0003
           6    0.0000    0.0000
           7   -0.0641    0.0617
           8    0.1602   -0.1538
           9    0.0062   -0.0057
          10   -0.0586    0.0564
          11   -0.0773    0.0741
          12    0.1226   -0.1180
          13   -0.0586    0.0563
          14   -0.0675    0.0652
          15   -0.1283    0.1230
          16   -0.0008    0.0007
          17   -0.0008    0.0007
          18   -0.0001    0.0004
          19   -0.0009    0.0003
          20    0.0003   -0.0002
          21    0.0001   -0.0004
          22    0.0107    0.0001
          23   -0.0002   -0.0010
          24    0.0001   -0.0005
          25    0.0039    0.0042
          26    0.0004    0.0004
          27    0.0000   -0.0000
          28    0.0117    0.0127
          29   -0.0010   -0.0012
          30   -0.0000   -0.0001
          31   -0.0008   -0.0008
          32   -0.0007   -0.0007
          33    0.0001   -0.0004
          34   -0.0009   -0.0004
          35    0.0002    0.0002
          36   -0.0001    0.0004
          37   -0.0603   -0.0655
          38    0.1508    0.1633
          39    0.0060    0.0060
          40   -0.0552   -0.0598
          41   -0.0635   -0.0692
          42   -0.1209   -0.1307
          43   -0.0552   -0.0598
          44   -0.0729   -0.0787
          45    0.1154    0.1252
          46    0.0107    0.0006
          47   -0.0003    0.0010
          48   -0.0001    0.0005


           MASS-WEIGHTED COORDINATE ANALYSIS (NORMAL COORDINATES)


   Root No.       1         2         3         4         5         6         7         8

                 1 Au      2 Au      1 Bg      1 Ag      2 Ag      1 Bu      2 Bg      3 Au  

                 -65.2      55.4      81.4     133.4     154.7     191.3     331.8     346.2
  
           1    0.0000   -0.0000   -0.0000   -0.0628    0.3296    0.0323    0.0000   -0.0000
           2   -0.0190    0.0015   -0.0123    0.1345    0.0707    0.4116   -0.0013    0.0027
           3    0.4805   -0.0370    0.3078    0.0053    0.0028    0.0162    0.0295   -0.0683
           4   -0.0000   -0.0000   -0.0000   -0.0628    0.3260    0.0224    0.0000    0.0000
           5    0.0006    0.0014    0.0059   -0.1497   -0.1033   -0.0415    0.0014   -0.0014
           6   -0.0148   -0.0343   -0.1526   -0.0058   -0.0040   -0.0016   -0.0349    0.0358
           7    0.0000   -0.0000    0.0000    0.0361    0.1343    0.1010   -0.0001    0.0000
           8   -0.0094    0.0007   -0.0064    0.0593    0.0364    0.1557    0.0150   -0.0151
           9    0.2374   -0.0187    0.1614    0.0023    0.0015    0.0061   -0.3836    0.3822
          10    0.0834   -0.0041    0.0799   -0.0427    0.0740   -0.0341    0.0517   -0.0599
          11   -0.0622    0.0029   -0.0379    0.0537    0.0381    0.1444    0.3149   -0.3228
          12    0.1439   -0.0115    0.1062   -0.0013    0.0015   -0.0010    0.2351   -0.2558
          13   -0.0833    0.0041   -0.0799   -0.0427    0.0740   -0.0341   -0.0516    0.0599
          14    0.0507   -0.0019    0.0294    0.0535    0.0382    0.1439   -0.3325    0.3420
          15    0.1483   -0.0117    0.1089    0.0055    0.0015    0.0123    0.2097   -0.2296
          16   -0.0000   -0.0000   -0.0001    0.1653    0.3582    0.2540    0.0001    0.0000
          17    0.0119    0.0184    0.0170   -0.3724   -0.0799   -0.2205   -0.0040   -0.0011
          18   -0.3021   -0.4679   -0.4363   -0.0146   -0.0032   -0.0086    0.1004    0.0268
          19   -0.0000    0.0000   -0.0000   -0.3773    0.2851   -0.2912   -0.0001   -0.0000
          20    0.0079   -0.0205    0.0132   -0.3221   -0.1051   -0.1858    0.0061   -0.0010
          21   -0.2019    0.5205   -0.3401   -0.0124   -0.0041   -0.0074   -0.1577    0.0259
          22   -0.0000    0.0000   -0.0000   -0.1051    0.0854   -0.0736   -0.0000   -0.0000
          23    0.0051   -0.0031    0.0041   -0.1170   -0.0427   -0.1025    0.0013   -0.0002
          24   -0.1295    0.0786   -0.1047   -0.0045   -0.0017   -0.0041   -0.0330    0.0055
          25    0.0000   -0.0000    0.0000    0.0628   -0.3260    0.0224   -0.0000    0.0000
          26    0.0006    0.0013   -0.0059    0.1497    0.1033   -0.0415   -0.0013   -0.0014
          27   -0.0148   -0.0343    0.1526    0.0058    0.0040   -0.0016    0.0349    0.0357
          28    0.0000   -0.0000    0.0000    0.0628   -0.3296    0.0323   -0.0000   -0.0000
          29   -0.0189    0.0015    0.0123   -0.1345   -0.0707    0.4116    0.0013    0.0027
          30    0.4805   -0.0371   -0.3078   -0.0053   -0.0028    0.0162   -0.0295   -0.0683
          31   -0.0000   -0.0000    0.0001   -0.1653   -0.3582    0.2540   -0.0001   -0.0000
          32    0.0119    0.0184   -0.0170    0.3724    0.0799   -0.2205    0.0041   -0.0011
          33   -0.3020   -0.4679    0.4363    0.0146    0.0032   -0.0088   -0.1004    0.0268
          34   -0.0000    0.0000    0.0000    0.3773   -0.2851   -0.2912    0.0001    0.0000
          35    0.0080   -0.0205   -0.0132    0.3221    0.1051   -0.1859   -0.0061   -0.0010
          36   -0.2019    0.5205    0.3401    0.0124    0.0041   -0.0072    0.1577    0.0259
          37    0.0000   -0.0000   -0.0000   -0.0361   -0.1343    0.1010    0.0001    0.0000
          38   -0.0093    0.0007    0.0064   -0.0593   -0.0364    0.1557   -0.0150   -0.0151
          39    0.2374   -0.0187   -0.1614   -0.0024   -0.0015    0.0061    0.3838    0.3821
          40   -0.0833    0.0041    0.0799    0.0427   -0.0740   -0.0341    0.0516    0.0598
          41    0.0507   -0.0019   -0.0294   -0.0535   -0.0382    0.1439    0.3326    0.3418
          42    0.1483   -0.0117   -0.1089   -0.0055   -0.0015    0.0123   -0.2097   -0.2295
          43    0.0834   -0.0041   -0.0799    0.0427   -0.0740   -0.0341   -0.0517   -0.0599
          44   -0.0622    0.0029    0.0379   -0.0537   -0.0381    0.1444   -0.3150   -0.3227
          45    0.1439   -0.0115   -0.1062    0.0013   -0.0015   -0.0010   -0.2352   -0.2557
          46   -0.0000    0.0000    0.0000    0.1051   -0.0854   -0.0736    0.0000    0.0000
          47    0.0051   -0.0031   -0.0041    0.1170    0.0427   -0.1025   -0.0013   -0.0002
          48   -0.1295    0.0786    0.1047    0.0045    0.0017   -0.0040    0.0330    0.0055


   Root No.       9        10        11        12        13        14        15        16

                 3 Ag      2 Bu      4 Au      3 Bu      3 Bg      4 Ag      4 Bg      5 Au  

                 404.1     448.3     538.0     539.3     543.9     552.3     630.3     689.1
  
           1    0.0951   -0.0788    0.0000   -0.2618    0.0001    0.2283    0.0000    0.0000
           2   -0.2979    0.2429    0.0006   -0.0218   -0.0007    0.0234   -0.0013   -0.0021
           3   -0.0121    0.0097   -0.0119   -0.0009    0.0064    0.0010    0.0345    0.0545
           4    0.1025   -0.0774    0.0000   -0.2198    0.0000    0.1956    0.0000    0.0000
           5    0.2366   -0.2240   -0.0206    0.0875    0.0207   -0.0521   -0.0053   -0.0060
           6    0.0092   -0.0088    0.5252    0.0034   -0.5304   -0.0020    0.1360    0.1530
           7   -0.1316    0.1301    0.0000   -0.1373    0.0000    0.1171    0.0000    0.0000
           8   -0.1553    0.1363    0.0059   -0.0338   -0.0059    0.0293    0.0006    0.0011
           9   -0.0061    0.0054   -0.1499   -0.0013    0.1455    0.0012   -0.0150   -0.0272
          10    0.1022   -0.0928   -0.1963   -0.0504    0.1974    0.0455   -0.0379   -0.0534
          11   -0.1451    0.1281    0.0330   -0.0338   -0.0293    0.0294    0.0013    0.0003
          12   -0.0006    0.0004   -0.0877   -0.0027    0.0893    0.0020   -0.0099   -0.0147
          13    0.1024   -0.0928    0.1963   -0.0505   -0.1973    0.0455    0.0379    0.0534
          14   -0.1445    0.1278   -0.0259   -0.0340    0.0219    0.0294   -0.0005    0.0009
          15   -0.0111    0.0098   -0.0901    0.0001    0.0913    0.0004   -0.0100   -0.0147
          16    0.3082   -0.2877    0.0000    0.3373   -0.0002   -0.3408    0.0000   -0.0000
          17    0.1026   -0.1018    0.0075   -0.3345   -0.0084    0.3312    0.0019    0.0050
          18    0.0038   -0.0039   -0.1893   -0.0133    0.2108    0.0131   -0.0466   -0.1269
          19   -0.3114    0.4075   -0.0000    0.1251    0.0001   -0.1912   -0.0000   -0.0000
          20    0.0834   -0.0464    0.0045    0.2542   -0.0056   -0.2630    0.0081    0.0079
          21    0.0031   -0.0018   -0.1128    0.0101    0.1368   -0.0103   -0.2037   -0.1994
          22   -0.1048    0.1177   -0.0000    0.0586    0.0000   -0.0699    0.0000    0.0000
          23   -0.1030    0.1329    0.0095    0.1948   -0.0078   -0.2215   -0.0259   -0.0252
          24   -0.0041    0.0052   -0.2402    0.0077    0.1954   -0.0087    0.6577    0.6404
          25   -0.1025   -0.0774    0.0000   -0.2198    0.0001   -0.1956   -0.0000    0.0000
          26   -0.2366   -0.2240   -0.0207    0.0875   -0.0207    0.0521    0.0053   -0.0060
          27   -0.0092   -0.0089    0.5252    0.0036    0.5304    0.0019   -0.1360    0.1530
          28   -0.0951   -0.0788   -0.0000   -0.2618    0.0000   -0.2283   -0.0000    0.0000
          29    0.2979    0.2429    0.0004   -0.0218    0.0007   -0.0234    0.0013   -0.0022
          30    0.0121    0.0095   -0.0119   -0.0008   -0.0064   -0.0010   -0.0345    0.0545
          31   -0.3082   -0.2877   -0.0000    0.3372    0.0001    0.3408   -0.0000   -0.0000
          32   -0.1026   -0.1018    0.0074   -0.3345    0.0085   -0.3312   -0.0019    0.0050
          33   -0.0039   -0.0041   -0.1893   -0.0131   -0.2108   -0.0131    0.0466   -0.1269
          34    0.3114    0.4075    0.0000    0.1251   -0.0002    0.1912    0.0000   -0.0000
          35   -0.0834   -0.0464    0.0044    0.2542    0.0056    0.2630   -0.0081    0.0078
          36   -0.0031   -0.0019   -0.1128    0.0099   -0.1368    0.0103    0.2037   -0.1994
          37    0.1316    0.1301   -0.0000   -0.1373    0.0001   -0.1171   -0.0000   -0.0000
          38    0.1553    0.1363    0.0059   -0.0338    0.0059   -0.0293   -0.0006    0.0011
          39    0.0061    0.0053   -0.1499   -0.0013   -0.1455   -0.0012    0.0150   -0.0272
          40   -0.1024   -0.0928    0.1963   -0.0504    0.1973   -0.0455   -0.0379    0.0534
          41    0.1445    0.1278   -0.0260   -0.0339   -0.0218   -0.0294    0.0005    0.0008
          42    0.0111    0.0097   -0.0901    0.0000   -0.0913   -0.0004    0.0100   -0.0147
          43   -0.1022   -0.0928   -0.1963   -0.0505   -0.1973   -0.0455    0.0379   -0.0534
          44    0.1451    0.1281    0.0329   -0.0339    0.0293   -0.0294   -0.0013    0.0003
          45    0.0007    0.0003   -0.0877   -0.0028   -0.0893   -0.0020    0.0099   -0.0147
          46    0.1048    0.1177   -0.0000    0.0586   -0.0001    0.0699   -0.0000    0.0000
          47    0.1030    0.1329    0.0095    0.1948    0.0077    0.2215    0.0259   -0.0252
          48    0.0041    0.0052   -0.2402    0.0076   -0.1954    0.0087   -0.6577    0.6404


   Root No.      17        18        19        20        21        22        23        24

                 4 Bu      5 Ag      5 Bu      6 Ag      5 Bg      6 Au      6 Bu      7 Ag  

                 989.0     989.4    1019.1    1025.8    1045.3    1048.5    1139.6    1156.6
  
           1    0.1576   -0.1218    0.3949   -0.4143    0.0001   -0.0000    0.0237   -0.0585
           2   -0.2548    0.2692    0.1225   -0.1090    0.0118   -0.0123   -0.0987    0.0853
           3   -0.0099    0.0098    0.0047   -0.0041   -0.3175    0.3162   -0.0038    0.0031
           4   -0.0239    0.0132   -0.1531    0.1707   -0.0001   -0.0000   -0.0227    0.0687
           5   -0.0766    0.0854   -0.0393    0.0366   -0.0125    0.0123    0.0639   -0.0698
           6   -0.0029    0.0028   -0.0016    0.0018    0.3069   -0.3112    0.0025   -0.0029
           7    0.4451   -0.4528   -0.0980    0.0645   -0.0002    0.0000    0.1391   -0.1252
           8    0.1132   -0.1163   -0.0552    0.0447   -0.0072    0.0069    0.0330   -0.0294
           9    0.0044   -0.0048   -0.0022    0.0020    0.1752   -0.1732    0.0013   -0.0013
          10   -0.1331    0.1526    0.2311   -0.2226    0.3496   -0.3487   -0.0854    0.0776
          11    0.0788   -0.0816   -0.0491    0.0419   -0.0022    0.0035    0.0052    0.0043
          12   -0.0041    0.0059    0.0241   -0.0244    0.1130   -0.1115   -0.0276    0.0324
          13   -0.1331    0.1529    0.2312   -0.2231   -0.3492    0.3486   -0.0854    0.0776
          14    0.0782   -0.0808   -0.0471    0.0399   -0.0072    0.0054    0.0030    0.0067
          15    0.0104   -0.0130   -0.0280    0.0280    0.1127   -0.1114    0.0280   -0.0322
          16   -0.0148    0.0154   -0.1850    0.1932   -0.0004    0.0001    0.1083   -0.1093
          17   -0.1105    0.0805   -0.2259    0.2262    0.0019   -0.0022    0.1669   -0.1907
          18   -0.0044    0.0028   -0.0090    0.0092   -0.0571    0.0577    0.0066   -0.0078
          19   -0.1358    0.1408   -0.1188    0.1240    0.0003   -0.0000   -0.1222    0.1016
          20    0.3350   -0.3130    0.1292   -0.1543    0.0008   -0.0014   -0.2856    0.2978
          21    0.0134   -0.0128    0.0051   -0.0061   -0.0300    0.0373   -0.0113    0.0117
          22   -0.0404    0.0337    0.0114   -0.0008    0.0001   -0.0000    0.0840   -0.0857
          23   -0.0204    0.0177    0.2493   -0.2189    0.0006   -0.0000    0.5520   -0.5419
          24   -0.0008    0.0007    0.0098   -0.0087   -0.0125    0.0000    0.0217   -0.0213
          25   -0.0239   -0.0132   -0.1531   -0.1707    0.0001   -0.0000   -0.0227   -0.0687
          26   -0.0765   -0.0854   -0.0393   -0.0366    0.0125    0.0122    0.0639    0.0698
          27   -0.0031   -0.0028   -0.0015   -0.0018   -0.3069   -0.3113    0.0025    0.0029
          28    0.1575    0.1219    0.3948    0.4143   -0.0001    0.0000    0.0237    0.0585
          29   -0.2546   -0.2694    0.1225    0.1090   -0.0118   -0.0126   -0.0987   -0.0853
          30   -0.0102   -0.0098    0.0049    0.0040    0.3175    0.3163   -0.0039   -0.0031
          31   -0.0148   -0.0155   -0.1850   -0.1932    0.0004   -0.0001    0.1083    0.1093
          32   -0.1104   -0.0806   -0.2259   -0.2262   -0.0018   -0.0023    0.1669    0.1907
          33   -0.0043   -0.0028   -0.0088   -0.0092    0.0571    0.0577    0.0065    0.0078
          34   -0.1357   -0.1409   -0.1188   -0.1240   -0.0003    0.0000   -0.1222   -0.1016
          35    0.3347    0.3133    0.1292    0.1544   -0.0008   -0.0015   -0.2856   -0.2978
          36    0.0130    0.0128    0.0051    0.0061    0.0300    0.0373   -0.0112   -0.0117
          37    0.4447    0.4532   -0.0980   -0.0645    0.0002   -0.0000    0.1391    0.1252
          38    0.1131    0.1164   -0.0552   -0.0447    0.0072    0.0068    0.0330    0.0294
          39    0.0044    0.0048   -0.0021   -0.0020   -0.1751   -0.1732    0.0013    0.0013
          40   -0.1329   -0.1530    0.2311    0.2230    0.3492    0.3487   -0.0854   -0.0776
          41    0.0781    0.0809   -0.0470   -0.0399    0.0072    0.0053    0.0030   -0.0067
          42    0.0103    0.0130   -0.0280   -0.0280   -0.1127   -0.1115    0.0279    0.0322
          43   -0.1330   -0.1527    0.2312    0.2227   -0.3496   -0.3487   -0.0854   -0.0776
          44    0.0787    0.0816   -0.0491   -0.0419    0.0022    0.0034    0.0052   -0.0043
          45   -0.0042   -0.0059    0.0242    0.0244   -0.1130   -0.1115   -0.0276   -0.0324
          46   -0.0403   -0.0337    0.0114    0.0008   -0.0001    0.0000    0.0840    0.0857
          47   -0.0204   -0.0177    0.2493    0.2189   -0.0006    0.0000    0.5520    0.5419
          48   -0.0008   -0.0007    0.0098    0.0087    0.0125    0.0000    0.0218    0.0213


   Root No.      25        26        27        28        29        30        31        32

                 7 Bu      8 Ag      6 Bg      7 Au      9 Ag      8 Bu     10 Ag      9 Bu  

                1244.1    1244.5    1249.4    1249.9    1324.7    1327.8    1331.8    1373.9
  
           1   -0.1373    0.1306   -0.0004   -0.0001   -0.0659   -0.2851   -0.3073   -0.1633
           2   -0.1694    0.1760    0.0054    0.0055   -0.0290    0.0635    0.1044    0.0814
           3   -0.0067    0.0067   -0.1430   -0.1403   -0.0011    0.0025    0.0040    0.0032
           4    0.0501   -0.0391    0.0002    0.0000   -0.2551    0.0057    0.2062    0.4273
           5   -0.0402    0.0488    0.0010    0.0009    0.3488    0.0163   -0.2573   -0.3717
           6   -0.0016    0.0021   -0.0247   -0.0226    0.0138    0.0006   -0.0103   -0.0147
           7   -0.0400    0.0463   -0.0002    0.0000    0.3313    0.3578    0.1967   -0.1295
           8   -0.0313    0.0355   -0.0191   -0.0190    0.1443    0.1775    0.1141   -0.0408
           9   -0.0013    0.0034    0.4843    0.4840    0.0056    0.0069    0.0042   -0.0016
          10    0.1776   -0.1741   -0.1936   -0.1921    0.1842    0.2861    0.2227   -0.0175
          11    0.3076   -0.3059    0.2853    0.2856   -0.0777   -0.2104   -0.1995   -0.0514
          12    0.3074   -0.3059    0.0622    0.0639    0.0567    0.0314    0.0014   -0.0460
          13    0.1775   -0.1728    0.1945    0.1923    0.1843    0.2861    0.2227   -0.0175
          14    0.3309   -0.3309   -0.2865   -0.2894   -0.0737   -0.2075   -0.1994   -0.0549
          15   -0.2823    0.2814    0.0377    0.0409   -0.0623   -0.0478   -0.0169    0.0418
          16    0.0226   -0.0208    0.0002    0.0000   -0.0001    0.0029    0.0132   -0.0194
          17    0.0179   -0.0315    0.0001    0.0003   -0.0623    0.0066    0.0642    0.0163
          18    0.0006   -0.0006    0.0038   -0.0052   -0.0035   -0.0000    0.0014    0.0006
          19   -0.0290    0.0328   -0.0003   -0.0000    0.1742    0.0032   -0.1296   -0.1767
          20   -0.0024    0.0103    0.0006    0.0002   -0.1793   -0.0166    0.1160    0.2270
          21   -0.0000    0.0000   -0.0092   -0.0031   -0.0058   -0.0003    0.0057    0.0090
          22    0.0114   -0.0190    0.0000    0.0000   -0.0863    0.0103    0.0759    0.0345
          23    0.0548   -0.0713    0.0003   -0.0002   -0.1310    0.0048    0.1202    0.1801
          24    0.0022   -0.0029   -0.0005    0.0065   -0.0048    0.0003    0.0050    0.0071
          25    0.0500    0.0392   -0.0002   -0.0000    0.2551    0.0054   -0.2062    0.4273
          26   -0.0402   -0.0489   -0.0010    0.0009   -0.3488    0.0166    0.2573   -0.3717
          27   -0.0016   -0.0021    0.0247   -0.0226   -0.0138    0.0007    0.0103   -0.0146
          28   -0.1372   -0.1308    0.0004    0.0000    0.0657   -0.2850    0.3074   -0.1633
          29   -0.1692   -0.1762   -0.0055    0.0055    0.0290    0.0634   -0.1045    0.0814
          30   -0.0066   -0.0068    0.1430   -0.1404    0.0011    0.0025   -0.0040    0.0033
          31    0.0226    0.0208   -0.0002   -0.0000    0.0002    0.0029   -0.0132   -0.0194
          32    0.0179    0.0315   -0.0001    0.0002    0.0623    0.0065   -0.0642    0.0163
          33    0.0008    0.0006   -0.0038   -0.0052    0.0035    0.0005   -0.0014    0.0007
          34   -0.0290   -0.0328    0.0003    0.0000   -0.1742    0.0034    0.1296   -0.1767
          35   -0.0024   -0.0103   -0.0006    0.0001    0.1793   -0.0167   -0.1160    0.2270
          36   -0.0002   -0.0000    0.0092   -0.0031    0.0058   -0.0010   -0.0057    0.0090
          37   -0.0399   -0.0463    0.0001    0.0000   -0.3311    0.3579   -0.1969   -0.1295
          38   -0.0313   -0.0356    0.0191   -0.0191   -0.1442    0.1775   -0.1142   -0.0408
          39   -0.0011   -0.0030   -0.4841    0.4841   -0.0056    0.0070   -0.0043   -0.0016
          40    0.1774    0.1731   -0.1944    0.1922   -0.1841    0.2861   -0.2229   -0.0175
          41    0.3305    0.3311    0.2866   -0.2898    0.0736   -0.2072    0.1995   -0.0549
          42   -0.2820   -0.2816   -0.0377    0.0412    0.0623   -0.0479    0.0169    0.0418
          43    0.1773    0.1741    0.1936   -0.1923   -0.1840    0.2861   -0.2228   -0.0175
          44    0.3074    0.3065   -0.2851    0.2854    0.0776   -0.2105    0.1996   -0.0514
          45    0.3071    0.3063   -0.0621    0.0636   -0.0567    0.0313   -0.0014   -0.0460
          46    0.0114    0.0190   -0.0000    0.0000    0.0863    0.0102   -0.0759    0.0345
          47    0.0547    0.0713   -0.0003   -0.0003    0.1310    0.0047   -0.1202    0.1801
          48    0.0021    0.0029    0.0005    0.0065    0.0048    0.0001   -0.0050    0.0071


   Root No.      33        34        35        36        37        38        39        40

                11 Ag     10 Bu     12 Ag     11 Bu      7 Bg      8 Au     13 Ag     12 Bu  

                1732.3    1776.6    2242.5    2334.8    2660.8    2661.2    2679.5    2679.8
  
           1   -0.0941   -0.0678    0.0018    0.0116   -0.0000   -0.0000   -0.0053   -0.0055
           2   -0.0182   -0.0327   -0.0171   -0.0016    0.0082    0.0079   -0.2003   -0.2006
           3   -0.0006   -0.0013   -0.0007   -0.0001   -0.1981   -0.1988   -0.0083   -0.0080
           4    0.4432    0.3630    0.0034   -0.0498    0.0000    0.0000   -0.0034   -0.0033
           5    0.3323    0.4337    0.1542    0.0083    0.0006    0.0004   -0.0098   -0.0092
           6    0.0131    0.0171    0.0061    0.0003   -0.0082   -0.0082   -0.0006   -0.0004
           7    0.0058    0.0222    0.0129    0.0046    0.0001   -0.0000   -0.2157   -0.2152
           8   -0.0040   -0.0019    0.0012   -0.0138    0.0010    0.0010    0.4877    0.4861
           9   -0.0001   -0.0001    0.0000   -0.0005   -0.0239   -0.0241    0.0191    0.0191
          10   -0.0350   -0.0366   -0.0062    0.0055   -0.1989   -0.1988    0.1213    0.1208
          11    0.0183    0.0254    0.0057    0.0088   -0.2437   -0.2434    0.1244    0.1237
          12   -0.0191   -0.0161   -0.0007   -0.0131    0.3621    0.3618   -0.2411   -0.2400
          13   -0.0350   -0.0367   -0.0062    0.0055    0.1990    0.1988    0.1213    0.1208
          14    0.0168    0.0240    0.0056    0.0077    0.2149    0.2143    0.1051    0.1045
          15    0.0205    0.0181    0.0011    0.0138    0.3803    0.3798    0.2497    0.2489
          16   -0.2309   -0.2422   -0.0480    0.0032    0.0002    0.0000    0.0034    0.0025
          17   -0.2972   -0.3213   -0.0749    0.0175    0.0001    0.0000    0.0019    0.0016
          18   -0.0115   -0.0126   -0.0029    0.0007    0.0008   -0.0004    0.0001    0.0001
          19   -0.0043   -0.0108   -0.1353   -0.1435   -0.0002   -0.0000   -0.0018   -0.0007
          20   -0.0122   -0.0512   -0.0206    0.0108    0.0003    0.0001    0.0011    0.0006
          21   -0.0006   -0.0020   -0.0008    0.0004   -0.0012   -0.0006   -0.0005   -0.0001
          22   -0.1004    0.0403    0.6569    0.6755   -0.0000   -0.0000    0.0002   -0.0036
          23    0.1668    0.0524   -0.1315   -0.1386    0.0000   -0.0000   -0.0002    0.0011
          24    0.0065    0.0021   -0.0052   -0.0055    0.0002    0.0013   -0.0001    0.0000
          25   -0.4432    0.3630   -0.0034   -0.0498   -0.0000   -0.0000    0.0034   -0.0033
          26   -0.3323    0.4337   -0.1542    0.0083   -0.0006    0.0003    0.0098   -0.0092
          27   -0.0131    0.0170   -0.0061    0.0003    0.0082   -0.0082    0.0006   -0.0003
          28    0.0941   -0.0678   -0.0018    0.0116    0.0000   -0.0000    0.0052   -0.0055
          29    0.0182   -0.0327    0.0171   -0.0016   -0.0082    0.0078    0.1997   -0.2012
          30    0.0006   -0.0013    0.0007   -0.0001    0.1979   -0.1990    0.0083   -0.0078
          31    0.2309   -0.2422    0.0480    0.0032   -0.0002   -0.0000   -0.0034    0.0025
          32    0.2972   -0.3213    0.0749    0.0175   -0.0001   -0.0000   -0.0019    0.0016
          33    0.0115   -0.0127    0.0029    0.0007   -0.0008   -0.0004   -0.0001    0.0000
          34    0.0043   -0.0108    0.1353   -0.1435    0.0002    0.0000    0.0018   -0.0007
          35    0.0122   -0.0512    0.0206    0.0108   -0.0003   -0.0000   -0.0011    0.0006
          36    0.0006   -0.0020    0.0008    0.0005    0.0012   -0.0006    0.0005    0.0001
          37   -0.0058    0.0222   -0.0129    0.0046   -0.0000   -0.0000    0.2151   -0.2159
          38    0.0040   -0.0019   -0.0012   -0.0138   -0.0011    0.0009   -0.4862    0.4877
          39    0.0001   -0.0001   -0.0000   -0.0006    0.0238   -0.0241   -0.0191    0.0192
          40    0.0350   -0.0366    0.0062    0.0055   -0.1989    0.1990   -0.1210    0.1212
          41   -0.0168    0.0240   -0.0056    0.0077   -0.2147    0.2144   -0.1048    0.1048
          42   -0.0205    0.0180   -0.0011    0.0138   -0.3800    0.3801   -0.2489    0.2497
          43    0.0350   -0.0367    0.0062    0.0055    0.1988   -0.1990   -0.1209    0.1212
          44   -0.0183    0.0254   -0.0057    0.0088    0.2435   -0.2437   -0.1240    0.1241
          45    0.0191   -0.0161    0.0007   -0.0131   -0.3618    0.3621    0.2403   -0.2407
          46    0.1004    0.0403   -0.6569    0.6755    0.0000    0.0000   -0.0002   -0.0036
          47   -0.1668    0.0524    0.1315   -0.1386   -0.0000   -0.0001    0.0002    0.0011
          48   -0.0065    0.0021    0.0052   -0.0055   -0.0002    0.0013    0.0001    0.0001


   Root No.      41        42

                13 Bu     14 Ag  

                2770.3    2770.9
  
           1    0.1096   -0.1034
           2   -0.0091    0.0095
           3   -0.0004    0.0007
           4    0.0369   -0.0340
           5    0.0039   -0.0030
           6    0.0001    0.0002
           7   -0.1640    0.1549
           8    0.4099   -0.3862
           9    0.0160   -0.0142
          10   -0.1499    0.1415
          11   -0.1978    0.1861
          12    0.3139   -0.2962
          13   -0.1500    0.1414
          14   -0.1728    0.1637
          15   -0.3283    0.3089
          16   -0.0084    0.0072
          17   -0.0078    0.0070
          18   -0.0011    0.0041
          19   -0.0090    0.0031
          20    0.0026   -0.0017
          21    0.0010   -0.0042
          22    0.0273    0.0002
          23   -0.0006   -0.0025
          24    0.0002   -0.0012
          25    0.0348    0.0361
          26    0.0037    0.0033
          27    0.0002   -0.0001
          28    0.1032    0.1098
          29   -0.0085   -0.0100
          30   -0.0003   -0.0007
          31   -0.0080   -0.0077
          32   -0.0074   -0.0075
          33    0.0005   -0.0041
          34   -0.0088   -0.0036
          35    0.0025    0.0019
          36   -0.0008    0.0042
          37   -0.1544   -0.1644
          38    0.3860    0.4101
          39    0.0154    0.0152
          40   -0.1412   -0.1502
          41   -0.1624   -0.1738
          42   -0.3094   -0.3281
          43   -0.1412   -0.1502
          44   -0.1866   -0.1976
          45    0.2954    0.3144
          46    0.0273    0.0015
          47   -0.0007    0.0025
          48   -0.0003    0.0012


          DESCRIPTION OF VIBRATIONS


 VIBRATION          1    1Au          ATOM PAIR      ENERGY CONTRIBUTION    RADIAL
 FREQUENCY           -65.24         C  1 -- C  2         +14.9% (-99.9%)      0.0%
 TRANSITION DIPOLE   0.3180         C  9 -- C 10         +14.9% (-99.9%)      0.0%
 TRAVEL (Ang.)       0.7996         C  1 -- H  3         +13.6% (-99.9%)      0.1%
 REDUCED MASS        1.6165         C 10 -- H 13         +13.6% (-99.9%)      0.1%
 EFFECTIVE MASS    547.8039         C  1 -- H  5         +10.4% (-99.9%)     56.5%
 FORCE CONSTANT     -0.0041         C 10 -- H 15         +10.4% (-99.9%)     62.9%
                            C  1 -- H  4         +10.4% (-99.9%)     64.0%
                            C 10 -- H 14         +10.4% (-99.9%)     57.7%

 VIBRATION          2    2Au          ATOM PAIR      ENERGY CONTRIBUTION    RADIAL
 FREQUENCY            55.42         C  9 -- O 12         +24.4% (232.7%)      0.0%
 TRANSITION DIPOLE   0.3051         C  2 -- O  7         +24.4% (232.7%)      0.0%
 TRAVEL (Ang.)       0.5590         O 12 -- H 16         +11.0% (156.5%)      0.0%
 REDUCED MASS        3.8942         O  7 -- H  8         +11.0% (156.5%)      0.0%
 EFFECTIVE MASS     35.2169
 FORCE CONSTANT      0.0070

 VIBRATION          3    1Bg          ATOM PAIR      ENERGY CONTRIBUTION    RADIAL
 FREQUENCY            81.38         C  9 -- C 10         +16.9% (400.4%)      0.0%
 TRANSITION DIPOLE   0.0000         C  1 -- C  2         +16.9% (400.4%)      0.0%
 TRAVEL (Ang.)       0.6737         C 10 -- H 13         +12.0% (337.4%)      0.1%
 REDUCED MASS        1.8253         C  1 -- H  3         +12.0% (337.4%)      0.1%
 EFFECTIVE MASS    177.4821
 FORCE CONSTANT      0.0071

 VIBRATION          4    1Ag          ATOM PAIR      ENERGY CONTRIBUTION    RADIAL
[...]
 FORCE CONSTANT      0.2287

 VIBRATION         26    8Ag          ATOM PAIR      ENERGY CONTRIBUTION    RADIAL
 FREQUENCY          1244.54         C 10 -- H 14         +20.8% ( 42.9%)      3.8%
 TRANSITION DIPOLE   0.0007         C  1 -- H  5         +20.8% ( 42.8%)      4.2%
 TRAVEL (Ang.)       0.4672         C 10 -- H 15         +20.7% ( 42.8%)      2.2%
 REDUCED MASS        0.2482         C  1 -- H  4         +20.7% ( 42.8%)      1.9%
 EFFECTIVE MASS      2.0191
 FORCE CONSTANT      0.2265

 VIBRATION         27    6Bg          ATOM PAIR      ENERGY CONTRIBUTION    RADIAL
 FREQUENCY          1249.41         C  1 -- H  3         +22.4% ( 40.5%)      0.1%
 TRANSITION DIPOLE   0.0002         C 10 -- H 13         +22.3% ( 40.5%)      0.1%
 TRAVEL (Ang.)       0.5457         C  1 -- H  4         +13.2% ( 31.1%)      6.6%
 REDUCED MASS        0.1812         C 10 -- H 15         +13.1% ( 31.0%)      6.1%
 EFFECTIVE MASS      1.3320         C 10 -- H 14         +13.0% ( 30.9%)      4.1%
 FORCE CONSTANT      0.1667         C  1 -- H  5         +13.0% ( 30.9%)      3.8%

 VIBRATION         28    7Au          ATOM PAIR      ENERGY CONTRIBUTION    RADIAL
 FREQUENCY          1249.92         C 10 -- H 13         +22.3% ( 40.4%)      0.1%
 TRANSITION DIPOLE   0.9160         C  1 -- H  3         +22.3% ( 40.3%)      0.1%
 TRAVEL (Ang.)       0.5462         C 10 -- H 14         +13.2% ( 31.0%)      3.9%
 REDUCED MASS        0.1809         C  1 -- H  4         +13.1% ( 31.0%)      6.5%
 EFFECTIVE MASS      1.3251         C 10 -- H 15         +13.1% ( 31.0%)      6.0%
 FORCE CONSTANT      0.1665         C  1 -- H  5         +13.1% ( 31.0%)      3.5%

 VIBRATION         29    9Ag          ATOM PAIR      ENERGY CONTRIBUTION    RADIAL
 FREQUENCY          1324.70         C  2 -- O  7         +15.7% ( 48.6%)     91.4%
 TRANSITION DIPOLE   0.0006         C  9 -- O 12         +15.7% ( 48.6%)     91.4%
 TRAVEL (Ang.)       0.2247         C  2 -- O  6         +10.1% ( 38.9%)     13.4%
 REDUCED MASS        1.0085         C  9 -- O 11         +10.1% ( 38.9%)     13.4%
 EFFECTIVE MASS      6.8451
 FORCE CONSTANT      1.0427

 VIBRATION         30    8Bu          ATOM PAIR      ENERGY CONTRIBUTION    RADIAL
 FREQUENCY          1327.78         C 10 -- H 13         +15.8% ( 41.6%)      3.8%
 TRANSITION DIPOLE   1.4178         C  1 -- H  3         +15.8% ( 41.6%)      3.8%
 TRAVEL (Ang.)       0.4175         C  1 -- H  5         +14.7% ( 40.1%)      0.4%
 REDUCED MASS        0.2914         C  1 -- H  4         +14.7% ( 40.1%)      0.8%
 EFFECTIVE MASS      2.5009         C 10 -- H 15         +14.7% ( 40.1%)      0.7%
 FORCE CONSTANT      0.3027         C 10 -- H 14         +14.7% ( 40.1%)      0.4%

 VIBRATION         31   10Ag          ATOM PAIR      ENERGY CONTRIBUTION    RADIAL
 FREQUENCY          1331.83         C  9 -- C 10         +11.0% ( 42.8%)     66.8%
 TRANSITION DIPOLE   0.0004         C  1 -- C  2         +11.0% ( 42.8%)     66.8%
 TRAVEL (Ang.)       0.2858         C 10 -- H 14          +8.8% ( 38.3%)      0.3%
 REDUCED MASS        0.6198         C  1 -- H  5          +8.8% ( 38.3%)      0.3%
 EFFECTIVE MASS      6.4503
 FORCE CONSTANT      0.6477

 VIBRATION         32    9Bu          ATOM PAIR      ENERGY CONTRIBUTION    RADIAL
 FREQUENCY          1373.93         C  9 -- O 12         +17.8% ( 59.0%)     84.4%
 TRANSITION DIPOLE   5.3616         C  2 -- O  7         +17.8% ( 59.0%)     84.4%
 TRAVEL (Ang.)       0.1342         C  9 -- C 10         +14.4% ( 53.0%)     62.9%
 REDUCED MASS        2.7241         C  1 -- C  2         +14.4% ( 53.0%)     62.9%
 EFFECTIVE MASS     10.9720         C  9 -- O 11         +11.4% ( 47.1%)      0.6%
 FORCE CONSTANT      3.0297         C  2 -- O  6         +11.4% ( 47.1%)      0.6%

 VIBRATION         33   11Ag          ATOM PAIR      ENERGY CONTRIBUTION    RADIAL
 FREQUENCY          1732.33         C  2 -- O  6         +23.9% ( 66.8%)     96.8%
 TRANSITION DIPOLE   0.0000         C  9 -- O 11         +23.9% ( 66.8%)     96.8%
 TRAVEL (Ang.)       0.1156         C  1 -- C  2         +12.2% ( 47.8%)     70.1%
 REDUCED MASS        2.9126         C  9 -- C 10         +12.2% ( 47.8%)     70.1%
 EFFECTIVE MASS     12.1502         C  2 -- O  7         +11.3% ( 46.0%)      7.2%
 FORCE CONSTANT      5.1498         C  9 -- O 12         +11.3% ( 46.0%)      7.2%

 VIBRATION         34   10Bu          ATOM PAIR      ENERGY CONTRIBUTION    RADIAL
 FREQUENCY          1776.65         C  9 -- O 11         +25.4% ( 68.0%)     99.9%
 TRANSITION DIPOLE   8.9882         C  2 -- O  6         +25.4% ( 68.0%)     99.9%
 TRAVEL (Ang.)       0.1072         C  1 -- C  2         +12.1% ( 47.0%)     46.0%
 REDUCED MASS        3.3037         C  9 -- C 10         +12.1% ( 47.0%)     46.0%
 EFFECTIVE MASS     13.0108         C  2 -- O  7         +11.8% ( 46.5%)     25.6%
 FORCE CONSTANT      6.1440         C  9 -- O 12         +11.8% ( 46.5%)     25.6%

 VIBRATION         35   12Ag          ATOM PAIR      ENERGY CONTRIBUTION    RADIAL
 FREQUENCY          2242.46         O  7 -- H  8         +46.7% ( 69.1%)     99.0%
 TRANSITION DIPOLE   0.0000         O 12 -- H 16         +46.7% ( 69.1%)     99.0%
 TRAVEL (Ang.)       0.2635         C  9 -- O 11          +1.5% ( 12.5%)     83.3%
 REDUCED MASS        0.4331         C  2 -- O  6          +1.5% ( 12.5%)     83.3%
 EFFECTIVE MASS      1.8079
 FORCE CONSTANT      1.2832

 VIBRATION         36   11Bu          ATOM PAIR      ENERGY CONTRIBUTION    RADIAL
 FREQUENCY          2334.84         O 12 -- H 16         +49.5% ( 68.4%)     98.0%
 TRANSITION DIPOLE   4.3606         O  7 -- H  8         +49.5% ( 68.4%)     98.0%
 TRAVEL (Ang.)       0.2480         C  2 -- O  7          +0.2% (  4.6%)     15.9%
 REDUCED MASS        0.4697         C  9 -- O 12          +0.2% (  4.6%)     15.9%
 EFFECTIVE MASS      1.3301
 FORCE CONSTANT      1.5086

 VIBRATION         37    7Bg          ATOM PAIR      ENERGY CONTRIBUTION    RADIAL
 FREQUENCY          2660.82         C  1 -- H  5         +24.6% ( 51.2%)     96.3%
 TRANSITION DIPOLE   0.0006         C  1 -- H  4         +24.6% ( 51.2%)     98.5%
 TRAVEL (Ang.)       0.3181         C 10 -- H 14         +24.6% ( 51.2%)     96.7%
 REDUCED MASS        0.2504         C 10 -- H 15         +24.5% ( 51.1%)     98.3%
 EFFECTIVE MASS      1.4549
 FORCE CONSTANT      1.0446

 VIBRATION         38    8Au          ATOM PAIR      ENERGY CONTRIBUTION    RADIAL
 FREQUENCY          2661.16         C 10 -- H 15         +24.6% ( 51.2%)     98.2%
 TRANSITION DIPOLE   1.4254         C 10 -- H 14         +24.6% ( 51.2%)     96.7%
 TRAVEL (Ang.)       0.3179         C  1 -- H  5         +24.6% ( 51.1%)     96.3%
 REDUCED MASS        0.2507         C  1 -- H  4         +24.6% ( 51.1%)     98.5%
 EFFECTIVE MASS      1.4575
 FORCE CONSTANT      1.0462

 VIBRATION         39   13Ag          ATOM PAIR      ENERGY CONTRIBUTION    RADIAL
 FREQUENCY          2679.55         C  1 -- H  3         +30.6% ( 57.0%)     99.3%
 TRANSITION DIPOLE   0.0020         C 10 -- H 13         +30.4% ( 56.8%)     99.4%
 TRAVEL (Ang.)       0.3292         C  1 -- H  4          +9.6% ( 31.9%)     85.1%
 REDUCED MASS        0.2323         C  1 -- H  5          +9.6% ( 31.9%)     90.2%
 EFFECTIVE MASS      1.4713
 FORCE CONSTANT      0.9826

 VIBRATION         40   12Bu          ATOM PAIR      ENERGY CONTRIBUTION    RADIAL
 FREQUENCY          2679.75         C 10 -- H 13         +30.6% ( 57.0%)     99.4%
 TRANSITION DIPOLE   1.2744         C  1 -- H  3         +30.4% ( 56.8%)     99.3%
 TRAVEL (Ang.)       0.3287         C 10 -- H 15          +9.5% ( 31.9%)     85.9%
 REDUCED MASS        0.2329         C 10 -- H 14          +9.5% ( 31.9%)     89.3%
 EFFECTIVE MASS      1.4735
 FORCE CONSTANT      0.9852

 VIBRATION         41   13Bu          ATOM PAIR      ENERGY CONTRIBUTION    RADIAL
 FREQUENCY          2770.29         C  1 -- H  3         +20.2% ( 43.2%)     95.7%
 TRANSITION DIPOLE   0.8969         C 10 -- H 13         +17.9% ( 40.7%)     95.7%
 TRAVEL (Ang.)       0.3851         C  1 -- H  4         +16.3% ( 38.8%)     94.2%
 REDUCED MASS        0.1641         C  1 -- H  5         +16.3% ( 38.8%)     93.9%
 EFFECTIVE MASS      1.1559         C 10 -- H 14         +14.4% ( 36.5%)     94.0%
 FORCE CONSTANT      0.7422         C 10 -- H 15         +14.4% ( 36.5%)     94.2%

 VIBRATION         42   14Ag          ATOM PAIR      ENERGY CONTRIBUTION    RADIAL
 FREQUENCY          2770.88         C 10 -- H 13         +20.2% ( 43.3%)     95.8%
 TRANSITION DIPOLE   0.0269         C  1 -- H  3         +17.9% ( 40.7%)     95.7%
 TRAVEL (Ang.)       0.3844         C 10 -- H 15         +16.3% ( 38.8%)     94.2%
 REDUCED MASS        0.1647         C 10 -- H 14         +16.3% ( 38.8%)     93.9%
 EFFECTIVE MASS      1.1542         C  1 -- H  4         +14.4% ( 36.5%)     94.2%
 FORCE CONSTANT      0.7450         C  1 -- H  5         +14.4% ( 36.5%)     93.8%

      SYMMETRY NUMBER FOR POINT-GROUP C2h =  2


          SYSTEM IS A GROUND STATE



 dimer kyseliny octovej


          MOLECULE IS NOT LINEAR

          THERE ARE 42 GENUINE VIBRATIONS IN THIS SYSTEM
          THIS THERMODYNAMICS CALCULATION IS LIMITED TO
          MOLECULES WHICH HAVE NO INTERNAL ROTATIONS




                    CALCULATED THERMODYNAMIC PROPERTIES
                                          *
   TEMP. (K)   PARTITION FUNCTION   H.O.F.    ENTHALPY  HEAT CAPACITY ENTROPY
                                   KCAL/MOL   CAL/MOLE    CAL/K/MOL  CAL/K/MOL


 298.00  VIB.     0.1031D+04                  4375.6238    27.9429    28.4708
         ROT.     0.2314D+06                   888.2803     2.9808    27.5262
         INT.     0.2385D+09                  5263.9041    30.9237    55.9970
         TRA.     0.1273D+28                  1480.4672     4.9680    40.2618
         TOT.                     -212.379    6744.3713    35.8917    96.2589

 200.00  VIB.     0.8685D+02                  2047.4585    19.5329    19.1084
         ROT.     0.1272D+06                   596.1613     2.9808    26.3375
         INT.     0.1105D+08                  2643.6198    22.5137    45.4460
         TRA.     0.6997D+27                   993.6021     4.9680    38.2807
         TOT.                     -215.486    3637.2219    27.4817    83.7267

 210.00  VIB.     0.1123D+03                  2247.1262    20.4003    20.0824
         ROT.     0.1369D+06                   625.9693     2.9808    26.4830
         INT.     0.1537D+08                  2873.0955    23.3811    46.5654
         TRA.     0.7528D+27                  1043.2822     4.9680    38.5231
         TOT.                     -215.207    3916.3778    28.3491    85.0885

 220.00  VIB.     0.1450D+03                  2455.4569    21.2656    21.0514
         ROT.     0.1468D+06                   655.7774     2.9808    26.6216
         INT.     0.2128D+08                  3111.2343    24.2464    47.6731
         TRA.     0.8072D+27                  1092.9623     4.9680    38.7542
         TOT.                     -214.919    4204.1967    29.2144    86.4273

 230.00  VIB.     0.1871D+03                  2672.4316    22.1291    22.0158
         ROT.     0.1569D+06                   685.5855     2.9808    26.7541
         INT.     0.2935D+08                  3358.0170    25.1099    48.7699
         TRA.     0.8628D+27                  1142.6424     4.9680    38.9750
         TOT.                     -214.622    4500.6595    30.0779    87.7450

 240.00  VIB.     0.2412D+03                  2898.0337    22.9911    22.9758
         ROT.     0.1672D+06                   715.3935     2.9808    26.8810
         INT.     0.4032D+08                  3613.4272    25.9719    49.8568
         TRA.     0.9197D+27                  1192.3226     4.9680    39.1865
         TOT.                     -214.317    4805.7498    30.9399    89.0433

 250.00  VIB.     0.3105D+03                  3132.2471    23.8513    23.9318
         ROT.     0.1778D+06                   745.2016     2.9808    27.0027
         INT.     0.5520D+08                  3877.4487    26.8321    50.9345
         TRA.     0.9778D+27                  1242.0027     4.9680    39.3893
         TOT.                     -214.004    5119.4514    31.8001    90.3238

 260.00  VIB.     0.3993D+03                  3375.0538    24.7096    24.8840
         ROT.     0.1885D+06                   775.0097     2.9808    27.1196
         INT.     0.7530D+08                  4150.0634    27.6904    52.0036
         TRA.     0.1037D+28                  1291.6828     4.9680    39.5841
         TOT.                     -213.681    5441.7462    32.6584    91.5877

 270.00  VIB.     0.5132D+03                  3626.4314    25.5655    25.8326
         ROT.     0.1995D+06                   804.8177     2.9808    27.2321
         INT.     0.1024D+09                  4431.2492    28.5463    53.0647
         TRA.     0.1097D+28                  1341.3629     4.9680    39.7716
         TOT.                     -213.350    5772.6120    33.5143    92.8363

 280.00  VIB.     0.6589D+03                  3886.3524    26.4182    26.7778
         ROT.     0.2107D+06                   834.6258     2.9808    27.3405
         INT.     0.1388D+09                  4720.9782    29.3990    54.1183
         TRA.     0.1159D+28                  1391.0430     4.9680    39.9523
         TOT.                     -213.011    6112.0212    34.3670    94.0706

 290.00  VIB.     0.8452D+03                  4154.7821    27.2671    27.7196
         ROT.     0.2221D+06                   864.4339     2.9808    27.4451
         INT.     0.1877D+09                  5019.2159    30.2479    55.1647
         TRA.     0.1222D+28                  1440.7231     4.9680    40.1266
         TOT.                     -212.663    6459.9390    35.2159    95.2914

 300.00  VIB.     0.1083D+04                  4431.6780    28.1113    28.6583
         ROT.     0.2337D+06                   894.2419     2.9808    27.5461
         INT.     0.2531D+09                  5325.9199    31.0921    56.2044
         TRA.     0.1285D+28                  1490.4032     4.9680    40.2951
         TOT.                     -212.307    6816.3231    36.0601    96.4995

 310.00  VIB.     0.1387D+04                  4716.9896    28.9500    29.5937
         ROT.     0.2455D+06                   924.0500     2.9808    27.6439
         INT.     0.3405D+09                  5641.0396    31.9309    57.2376
         TRA.     0.1350D+28                  1540.0833     4.9680    40.4580
         TOT.                     -211.942    7181.1229    36.8989    97.6956

 320.00  VIB.     0.1775D+04                  5010.6580    29.7825    30.5260
         ROT.     0.2574D+06                   953.8580     2.9808    27.7385
         INT.     0.4570D+09                  5964.5160    32.7633    58.2645
         TRA.     0.1416D+28                  1589.7634     4.9680    40.6157
         TOT.                     -211.569    7554.2794    37.7313    98.8802

 330.00  VIB.     0.2270D+04                  5312.6160    30.6078    31.4551
         ROT.     0.2696D+06                   983.6661     2.9808    27.8302
         INT.     0.6120D+09                  6296.2821    33.5887    59.2854
         TRA.     0.1483D+28                  1639.4435     4.9680    40.7686
         TOT.                     -211.187    7935.7256    38.5567   100.0540

 340.00  VIB.     0.2901D+04                  5622.7887    31.4253    32.3810
         ROT.     0.2820D+06                  1013.4742     2.9808    27.9192
         INT.     0.8179D+09                  6636.2629    34.4061    60.3003
         TRA.     0.1551D+28                  1689.1236     4.9680    40.9169
         TOT.                     -210.798    8325.3865    39.3741   101.2171

 350.00  VIB.     0.3704D+04                  5941.0940    32.2342    33.3037
         ROT.     0.2945D+06                  1043.2822     2.9808    28.0056
         INT.     0.1091D+10                  6984.3762    35.2150    61.3093
         TRA.     0.1620D+28                  1738.8037     4.9680    41.0609
         TOT.                     -210.400    8723.1800    40.1831   102.3702

 360.00  VIB.     0.4726D+04                  6267.4429    33.0340    34.2230
         ROT.     0.3072D+06                  1073.0903     2.9808    28.0896
         INT.     0.1452D+10                  7340.5332    36.0148    62.3126
         TRA.     0.1690D+28                  1788.4838     4.9680    41.2009
         TOT.                     -209.994    9129.0170    40.9828   103.5134

 370.00  VIB.     0.6026D+04                  6601.7407    33.8239    35.1389
         ROT.     0.3201D+06                  1102.8984     2.9808    28.1713
         INT.     0.1929D+10                  7704.6390    36.8047    63.3101
         TRA.     0.1761D+28                  1838.1639     4.9680    41.3370
         TOT.                     -209.580    9542.8030    41.7727   104.6471

 380.00  VIB.     0.7678D+04                  6943.8872    34.6036    36.0513
         ROT.     0.3331D+06                  1132.7064     2.9808    28.2508
         INT.     0.2558D+10                  8076.5936    37.5844    64.3020
         TRA.     0.1832D+28                  1887.8440     4.9680    41.4695
         TOT.                     -209.159    9964.4377    42.5525   105.7715

 390.00  VIB.     0.9777D+04                  7293.7780    35.3727    36.9601
         ROT.     0.3464D+06                  1162.5145     2.9808    28.3282
         INT.     0.3387D+10                  8456.2925    38.3535    65.2883
         TRA.     0.1905D+28                  1937.5242     4.9680    41.5985
         TOT.                     -208.729   10393.8167    43.3215   106.8868

 400.00  VIB.     0.1244D+05                  7651.3049    36.1308    37.8652
         ROT.     0.3598D+06                  1192.3226     2.9808    28.4037
         INT.     0.4476D+10                  8843.6275    39.1116    66.2689
         TRA.     0.1979D+28                  1987.2043     4.9680    41.7243
         TOT.                     -208.292   10830.8317    44.0796   107.9932

   *: NOTE: HEATS OF FORMATION ARE RELATIVE TO THE
            ELEMENTS IN THEIR STANDARD STATE AT 298K
              (=  Standard Enthalpy of Formation).

            Hvib:  Zero-point energy is not included.
                   frequencies of less than zero cm-1 are not included.
            Hrot = (3/2)RT
            Htra = (3/2)RT + pV = (5/2)RT

            Heat capacity is Cp, not Cv

          For more information, see: HTTP://OpenMOPAC.net/Manual/thermochemistry.html


           FORCE CONSTANT IN CARTESIAN COORDINATES (Millidynes/A)

    ATOM   CHEMICAL       X               Y               Z
   NUMBER   SYMBOL  FORCE CONSTANT  FORCE CONSTANT  FORCE CONSTANT

      1       C        7.562228        6.614032        5.979140
      2       C       11.837477       11.998445        2.809027
      3       H        1.220939        3.566967        0.512706
      4       H        1.231295        1.425438        2.661524
      5       H        1.231568        1.225714        2.860976
      6       O        5.399647        8.690560        0.405845
      7       O        4.937982        6.659956        0.464379
      8       H        2.823559        0.801863        0.235726
      9       C       11.837477       11.998445        2.809027
     10       C        7.562228        6.614032        5.979140
     11       O        5.399647        8.690560        0.405845
     12       O        4.937982        6.659956        0.464379
     13       H        1.220939        3.566967        0.512706
     14       H        1.231568        1.225714        2.860976
     15       H        1.231295        1.425438        2.661524
     16       H        2.823559        0.801863        0.235726

 **********************
 *                    *
 * JOB ENDED NORMALLY *
 *                    *
 **********************



 TOTAL JOB TIME:             6.85 SECONDS

 == MOPAC DONE ==
