 *******************************************************************************
 **                                                                           **
 **                              MOPAC v22.1.0                                **
 **                                                                           **
 *******************************************************************************
 **          Digital Object Identifier (DOI): 10.5281/zenodo.6511958          **
 **    Visit the DOI location for information on how to cite this program.    **
 *******************************************************************************

                              PM6 CALCULATION RESULTS

 *******************************************************************************
 *  CALCULATION DONE:                                Sun Jan  7 21:14:08 2024  *
 *  PM6        - The PM6 Hamiltonian to be used
 *  SINGLET    - SPIN STATE DEFINED AS A SINGLET
 *
 *
 *
 *                 CHARGE ON SYSTEM = 0
 *
 *
 *
 *  PRECISE    - TIGHTER CRITERIA TO BE USED
 *  T=         - A TIME OF 172800.0 SECONDS REQUESTED
 *  DUMP=N     - RESTART FILE WRITTEN EVERY 7200.0 SECONDS REQUESTED
 *  AUX        - OUTPUT AUXILIARY INFORMATION
 *  LARGE      - EXPANDED OUTPUT TO BE PRINTED
 *******************************************************************************
 AUX LARGE CHARGE=0 SINGLET  PRECISE PM6
 monomer kyseliny octovej

   ATOM   CHEMICAL          X               Y               Z
  NUMBER   SYMBOL      (ANGSTROMS)     (ANGSTROMS)     (ANGSTROMS)
 
     1       C         -7.66211000  *   1.62009000  *  -0.12426000  *
     2       C         -6.20696000  *   1.86407000  *   0.10281000  *
     3       H         -8.04897000  *   2.36631000  *  -0.82400000  *
     4       H         -8.20466000  *   1.71127000  *   0.81987000  *
     5       H         -7.80833000  *   0.62762000  *  -0.55763000  *
     6       O         -5.53630000  *   2.75814000  *  -0.38324000  *
     7       O         -5.66031000  *   0.96443000  *   0.94117000  *
     8       H         -4.72067000  *   1.23662000  *   1.00266000  *
 


          CARTESIAN COORDINATES 

    NO.       ATOM           X           Y           Z

     1         C         -7.6621      1.6201     -0.1243
     2         C         -6.2070      1.8641      0.1028
     3         H         -8.0490      2.3663     -0.8240
     4         H         -8.2047      1.7113      0.8199
     5         H         -7.8083      0.6276     -0.5576
     6         O         -5.5363      2.7581     -0.3832
     7         O         -5.6603      0.9644      0.9412
     8         H         -4.7207      1.2366      1.0027

 General Reference for PM6:
 "Optimization of Parameters for Semiempirical Methods V: Modification of NDDO Approximations
 and Application to 70 Elements", J. J. P. Stewart, J. Mol. Mod., 13, 1173-1213 (2007)
 URL: https://link.springer.com/article/10.1007/s00894-007-0233-4

           Empirical Formula: C2 H4 O2  =     8 atoms



      MOLECULAR POINT GROUP   :   Cs  


 SINGLET STATE CALCULATION


      RHF CALCULATION, NO. OF DOUBLY OCCUPIED LEVELS = 12


          Geometry optimization using EF

          DIAGONAL MATRIX USED AS START HESSIAN

 CYCLE:     1 TIME:   0.008 TIME LEFT:  2.00D  GRAD.:    66.797 HEAT: -98.09420
 CYCLE:     2 TIME:   0.031 TIME LEFT:  2.00D  GRAD.:    56.284 HEAT: -99.23255
 CYCLE:     3 TIME:   0.000 TIME LEFT:  2.00D  GRAD.:    68.698 HEAT: -99.61302
 CYCLE:     4 TIME:   0.016 TIME LEFT:  2.00D  GRAD.:    29.347 HEAT: -100.4225
 CYCLE:     5 TIME:   0.000 TIME LEFT:  2.00D  GRAD.:    30.976 HEAT: -100.5874
 CYCLE:     6 TIME:   0.016 TIME LEFT:  2.00D  GRAD.:    22.656 HEAT: -100.7813
 CYCLE:     7 TIME:   0.016 TIME LEFT:  2.00D  GRAD.:    10.867 HEAT: -100.9641
 CYCLE:     8 TIME:   0.016 TIME LEFT:  2.00D  GRAD.:     6.242 HEAT: -101.0330
 CYCLE:     9 TIME:   0.008 TIME LEFT:  2.00D  GRAD.:     5.295 HEAT: -101.0694
 CYCLE:    10 TIME:   0.008 TIME LEFT:  2.00D  GRAD.:     3.332 HEAT: -101.0878
 CYCLE:    11 TIME:   0.008 TIME LEFT:  2.00D  GRAD.:     3.256 HEAT: -101.0970
 CYCLE:    12 TIME:   0.008 TIME LEFT:  2.00D  GRAD.:     2.846 HEAT: -101.1077
 CYCLE:    13 TIME:   0.008 TIME LEFT:  2.00D  GRAD.:     1.606 HEAT: -101.1211
 CYCLE:    14 TIME:   0.008 TIME LEFT:  2.00D  GRAD.:     1.289 HEAT: -101.1250
 CYCLE:    15 TIME:   0.016 TIME LEFT:  2.00D  GRAD.:     0.987 HEAT: -101.1285
 CYCLE:    16 TIME:   0.008 TIME LEFT:  2.00D  GRAD.:     0.707 HEAT: -101.1305
 CYCLE:    17 TIME:   0.000 TIME LEFT:  2.00D  GRAD.:     0.337 HEAT: -101.1312
 CYCLE:    18 TIME:   0.008 TIME LEFT:  2.00D  GRAD.:     0.205 HEAT: -101.1314
 CYCLE:    19 TIME:   0.016 TIME LEFT:  2.00D  GRAD.:     0.138 HEAT: -101.1314
 CYCLE:    20 TIME:   0.008 TIME LEFT:  2.00D  GRAD.:     0.085 HEAT: -101.1315
 CYCLE:    21 TIME:   0.008 TIME LEFT:  2.00D  GRAD.:     0.046 HEAT: -101.1315

     GRADIENT =  0.04586 IS LESS THAN CUTOFF =  0.05000



 -------------------------------------------------------------------------------
 AUX LARGE CHARGE=0 SINGLET  PRECISE PM6
 monomer kyseliny octovej



     GEOMETRY OPTIMISED USING EIGENVECTOR FOLLOWING (EF).     
     SCF FIELD WAS ACHIEVED                                   


                              PM6 CALCULATION
                                                       MOPAC v22.1.0 Windows
                                                       Sun Jan  7 21:14:08 2024




          FINAL HEAT OF FORMATION =       -101.13149 KCAL/MOL =    -423.13417 KJ/MOL


          COSMO AREA              =         92.13 SQUARE ANGSTROMS
          COSMO VOLUME            =         73.69 CUBIC ANGSTROMS

          GRADIENT NORM           =          0.04586          =       0.01621 PER ATOM
          IONIZATION POTENTIAL    =         11.418604 EV
          HOMO LUMO ENERGIES (EV) =        -11.419  0.509
          NO. OF FILLED LEVELS    =         12
          MOLECULAR WEIGHT        =         60.0524         POINT GROUP:  Cs  

          MOLECULAR DIMENSIONS (Angstroms)

            Atom       Atom       Distance
            H     8    H     3     4.10145
            O     6    H     5     2.87143
            H     5    H     4     1.67158


          SCF CALCULATIONS        =         25
 
          WALL-CLOCK TIME         =      0.273 SECONDS
          COMPUTATION TIME        =      1.344 SECONDS




   ATOM   CHEMICAL          X               Y               Z
  NUMBER   SYMBOL      (ANGSTROMS)     (ANGSTROMS)     (ANGSTROMS)
 
     1       C         -7.65769104  *   1.61922877  *  -0.12317993  *
     2       C         -6.21388076  *   1.90021709  *   0.07439464  *
     3       H         -8.10953691  *   2.33628029  *  -0.82677200  *
     4       H         -8.21371466  *   1.67677889  *   0.82728384  *
     5       H         -7.82266045  *   0.60262855  *  -0.51698383  *
     6       O         -5.51667440  *   2.77197970  *  -0.38591706  *
     7       O         -5.66324123  *   0.97081993  *   0.93321403  *
     8       H         -4.69459559  *   1.12372338  *   1.09409990  *

                             CARTESIAN COORDINATES

   1    C       -7.657691041     1.619228768    -0.123179927
   2    C       -6.213880759     1.900217089     0.074394638
   3    H       -8.109536908     2.336280292    -0.826772002
   4    H       -8.213714664     1.676778894     0.827283841
   5    H       -7.822660450     0.602628550    -0.516983834
   6    O       -5.516674400     2.771979704    -0.385917058
   7    O       -5.663241228     0.970819931     0.933214032
   8    H       -4.694595587     1.123723378     1.094099901


           Empirical Formula: C2 H4 O2  =     8 atoms



      MOLECULAR POINT GROUP   :   Cs  


                  EIGENVALUES  
 -32.49788 -30.58890 -27.45445 -21.78572 -18.11968 -16.66164 -16.64108 -14.49738
 -13.99732 -13.82219 -12.31824 -11.41860   0.50898   1.67490   3.04121   3.96885
   4.71267   4.75653   4.97282   5.78552


              NET ATOMIC CHARGES AND DIPOLE CONTRIBUTIONS

  ATOM NO.   TYPE          CHARGE      No. of ELECS.   s-Pop       p-Pop       
    1          C          -0.584805        4.5848     1.09628     3.48852
    2          C           0.680423        3.3196     1.08390     2.23567
    3          H           0.202721        0.7973     0.79728
    4          H           0.206444        0.7936     0.79356
    5          H           0.206509        0.7935     0.79349
    6          O          -0.510776        6.5108     1.85159     4.65919
    7          O          -0.540811        6.5408     1.81607     4.72474
    8          H           0.340295        0.6597     0.65971
 DIPOLE           X         Y         Z       TOTAL
 POINT-CHG.    -2.027    -1.288     0.403     2.435
 HYBRID         0.459     0.035     0.107     0.473
 SUM           -1.567    -1.254     0.510     2.071


          ATOMIC ORBITAL ELECTRON POPULATIONS

     Atom    s        px        py        pz   
    1  C   1.09628   1.05201   1.21771   1.21880
    2  C   1.08390   0.83851   0.71418   0.68299
    3  H   0.79728
    4  H   0.79356
    5  H   0.79349
    6  O   1.85159   1.64349   1.44613   1.56956
    7  O   1.81607   1.41339   1.63049   1.68086
    8  H   0.65971
 *******************************************************************************
 **                                                                           **
 **                              MOPAC v22.1.0                                **
 **                                                                           **
 *******************************************************************************
 **          Digital Object Identifier (DOI): 10.5281/zenodo.6511958          **
 **    Visit the DOI location for information on how to cite this program.    **
 *******************************************************************************

                              PM6 CALCULATION RESULTS

 *******************************************************************************
 *  CALCULATION DONE:                                Sun Jan  7 21:14:08 2024  *
 *  PM6        - The PM6 Hamiltonian to be used
 *  OLDGEO     - PREVIOUS GEOMETRY TO BE USED
 *  PRECISE    - TIGHTER CRITERIA TO BE USED
 *  T=         - A TIME OF 172800.0 SECONDS REQUESTED
 *  DUMP=N     - RESTART FILE WRITTEN EVERY 7200.0 SECONDS REQUESTED
 *  THERMO     - THERMODYNAMIC QUANTITIES TO BE CALCULATED
 *******************************************************************************
OLDGEO PRECISE PM6 THERMO
 monomer kyseliny octovej

   ATOM   CHEMICAL          X               Y               Z
  NUMBER   SYMBOL      (ANGSTROMS)     (ANGSTROMS)     (ANGSTROMS)
 
     1       C         -7.65769104  *   1.61922877  *  -0.12317993  *
     2       C         -6.21388076  *   1.90021709  *   0.07439464  *
     3       H         -8.10953691  *   2.33628029  *  -0.82677200  *
     4       H         -8.21371466  *   1.67677889  *   0.82728384  *
     5       H         -7.82266045  *   0.60262855  *  -0.51698383  *
     6       O         -5.51667440  *   2.77197970  *  -0.38591706  *
     7       O         -5.66324123  *   0.97081993  *   0.93321403  *
     8       H         -4.69459559  *   1.12372338  *   1.09409990  *
 


          CARTESIAN COORDINATES 

    NO.       ATOM           X           Y           Z

     1         C         -7.6577      1.6192     -0.1232
     2         C         -6.2139      1.9002      0.0744
     3         H         -8.1095      2.3363     -0.8268
     4         H         -8.2137      1.6768      0.8273
     5         H         -7.8227      0.6026     -0.5170
     6         O         -5.5167      2.7720     -0.3859
     7         O         -5.6632      0.9708      0.9332
     8         H         -4.6946      1.1237      1.0941

 General Reference for PM6:
 "Optimization of Parameters for Semiempirical Methods V: Modification of NDDO Approximations
 and Application to 70 Elements", J. J. P. Stewart, J. Mol. Mod., 13, 1173-1213 (2007)
 URL: https://link.springer.com/article/10.1007/s00894-007-0233-4

           Empirical Formula: C2 H4 O2  =     8 atoms



      MOLECULAR POINT GROUP   :   Cs  


      RHF CALCULATION, NO. OF DOUBLY OCCUPIED LEVELS = 12



          HEAT OF FORMATION =    -101.131494 KCALS/MOLE


          CARTESIAN COORDINATE DERIVATIVES

   NUMBER  ATOM         X            Y            Z

     1       C      0.004233    -0.013456    -0.000317
     2       C     -0.000945    -0.000631    -0.000950
     3       H      0.016216    -0.010177    -0.000227
     4       H      0.016385    -0.005988     0.000402
     5       H     -0.019255     0.007220    -0.009720
     6       O      0.005323     0.009583    -0.000947
     7       O     -0.002873     0.011807     0.002747
     8       H     -0.019084     0.001641     0.009012
 


          GRADIENT NORM =   0.04598

          MOLECULAR WEIGHT =   60.05



          ROTATIONAL CONSTANTS IN CM(-1)

          A =    0.37898158   B =    0.31049160   C =    0.17626798



           PRINCIPAL MOMENTS OF INERTIA IN UNITS OF 10**(-40)*GRAM-CM**2

          A =       73.8631   B =       90.1562   C =      158.8079


          ORIENTATION OF MOLECULE IN FORCE CALCULATION

    NO.       ATOM         X         Y         Z

     1          C      -1.4516    0.1230    0.0029
     2          C       0.0325    0.1230    0.0029
     3          H      -1.8491    1.1503    0.0029
     4          H      -1.8551   -0.3993    0.8862
     5          H      -1.8570   -0.4012   -0.8784
     6          O       0.8146    1.0427    0.0266
     7          O       0.5066   -1.1727   -0.0298
     8          H       1.4993   -1.2181   -0.0298


    FIRST DERIVATIVES WILL BE USED IN THE CALCULATION OF SECOND DERIVATIVES

          ESTIMATED TIME TO COMPLETE CALCULATION =        1.50 SECONDS

    FOR POINT-GROUP Cs   THERE ARE   2 UNIQUE SYMMETRY FUNCTIONS.

 STEP:   1 TIME =     0.04 SECS, INTEGRAL =      0.04 TIME LEFT: 172799.96
 STEP:   2 TIME =     0.04 SECS, INTEGRAL =      0.08 TIME LEFT: 172799.92
 STEP:   3 TIME =     0.04 SECS, INTEGRAL =      0.12 TIME LEFT: 172799.88
 STEP:   4 TIME =     0.03 SECS, INTEGRAL =      0.15 TIME LEFT: 172799.85
 STEP:   5 TIME =     0.04 SECS, INTEGRAL =      0.19 TIME LEFT: 172799.81
 STEP:   6 TIME =     0.04 SECS, INTEGRAL =      0.23 TIME LEFT: 172799.77
 STEP:   7 TIME =     0.06 SECS, INTEGRAL =      0.29 TIME LEFT: 172799.71
 STEP:   8 TIME =     0.05 SECS, INTEGRAL =      0.34 TIME LEFT: 172799.66
 STEP:   9 TIME =     0.05 SECS, INTEGRAL =      0.39 TIME LEFT: 172799.61
 STEP:  10 TIME =     0.05 SECS, INTEGRAL =      0.44 TIME LEFT: 172799.56
 STEP:  11 TIME =     0.04 SECS, INTEGRAL =      0.48 TIME LEFT: 172799.52
 STEP:  12 TIME =     0.04 SECS, INTEGRAL =      0.52 TIME LEFT: 172799.48
 STEP:  13                       INTEGRAL =      0.52 TIME LEFT: 172799.48
 STEP:  14                       INTEGRAL =      0.52 TIME LEFT: 172799.48
 STEP:  15                       INTEGRAL =      0.52 TIME LEFT: 172799.48
 STEP:  16 TIME =     0.04 SECS, INTEGRAL =      0.55 TIME LEFT: 172799.45
 STEP:  17 TIME =     0.03 SECS, INTEGRAL =      0.59 TIME LEFT: 172799.41
 STEP:  18 TIME =     0.03 SECS, INTEGRAL =      0.62 TIME LEFT: 172799.38
 STEP:  19 TIME =     0.04 SECS, INTEGRAL =      0.66 TIME LEFT: 172799.34
 STEP:  20 TIME =     0.04 SECS, INTEGRAL =      0.70 TIME LEFT: 172799.30
 STEP:  21 TIME =     0.04 SECS, INTEGRAL =      0.73 TIME LEFT: 172799.27
 STEP:  22 TIME =     0.05 SECS, INTEGRAL =      0.78 TIME LEFT: 172799.22
 STEP:  23 TIME =     0.04 SECS, INTEGRAL =      0.82 TIME LEFT: 172799.18
 STEP:  24 TIME =     0.04 SECS, INTEGRAL =      0.86 TIME LEFT: 172799.14

(To convert to Hartree/Bohr^2, multiply by (10^(-21) x N x a0^2)/(4.184 x 627.51) =  0.0642)


           FORCE MATRIX IN MILLIDYNES/ANGSTROM


                  C  1       C  2       H  3       H  4       H  5       O  6
 ------------------------------------------------------------------------------
     C    1  11.693241
     C    2   3.928955  17.939798
     H    3   3.466095   0.715659   4.202296
     H    4   3.446305   0.726125   0.416489   4.187753
     H    5   3.447817   0.724527   0.415948   0.427075   4.187753
     O    6   1.048737  11.693429   0.056889   0.064003   0.063744  13.830621
     O    7   0.984341   4.203588   0.061693   0.055318   0.055359   2.009706
     H    8   0.121375   1.102678   0.023081   0.012701   0.012624   0.189679


                  O  7       H  8
 ------------------------------
     O    7   8.042989
     H    8   3.137335   3.756315


          HEAT OF FORMATION =    -101.131494 KCALS/MOLE

          ZERO POINT ENERGY      34.384 KCAL/MOL


           NORMAL COORDINATE ANALYSIS (Total motion = 1 Angstrom)


   Root No.       1         2         3         4         5         6         7         8

                 1 A"      1 A'      2 A"      2 A'      3 A"      3 A'      4 A'      4 A"  

                 268.8     389.5     508.0     515.6     586.4     961.0    1014.8    1041.9
  
           1   -0.0000   -0.0153   -0.0000    0.0912    0.0000    0.0408    0.1020    0.0000
           2    0.0000    0.0829   -0.0004    0.0066   -0.0002   -0.0710    0.0373    0.0019
           3   -0.0010    0.0023    0.0124    0.0003    0.0127   -0.0014    0.0008   -0.0819
           4   -0.0000   -0.0187    0.0000    0.0805   -0.0000    0.0027   -0.0405   -0.0000
           5   -0.0000   -0.0644    0.0027   -0.0317   -0.0025   -0.0393   -0.0141   -0.0021
           6    0.0015   -0.0017   -0.1042   -0.0008    0.0994   -0.0010   -0.0004    0.0817
           7    0.0000    0.1388   -0.0001    0.1606    0.0001    0.4048   -0.0974   -0.0003
           8   -0.0078    0.1495   -0.0028    0.0364    0.0018    0.0970   -0.0480   -0.0039
           9    0.3091    0.0040    0.1060    0.0010   -0.0677    0.0029   -0.0016    0.1424
          10   -0.0251   -0.0903    0.1425    0.0638   -0.1246   -0.1218    0.2145    0.3187
          11   -0.2559    0.1459   -0.0183    0.0367    0.0077    0.0815   -0.0536   -0.0040
          12   -0.1720    0.0017    0.0759    0.0025   -0.0497    0.0028    0.0174    0.1016
          13    0.0251   -0.0905   -0.1424    0.0638    0.1246   -0.1224    0.2150   -0.3184
          14    0.2643    0.1457    0.0142    0.0367   -0.0050    0.0815   -0.0527   -0.0018
          15   -0.1588    0.0062    0.0767   -0.0004   -0.0500    0.0024   -0.0207    0.1015
          16   -0.0000   -0.0647   -0.0001   -0.0888    0.0001   -0.0088   -0.0435   -0.0002
          17    0.0007   -0.0222   -0.0007    0.1038    0.0010   -0.0283   -0.0490    0.0005
          18   -0.0264   -0.0006    0.0297    0.0026   -0.0416   -0.0009   -0.0011   -0.0139
          19   -0.0000    0.0865    0.0001   -0.0535   -0.0001   -0.0316   -0.0240    0.0002
          20   -0.0007   -0.0259    0.0001   -0.0748    0.0015    0.0955    0.0292    0.0003
          21    0.0263   -0.0007   -0.0034   -0.0019   -0.0603    0.0023    0.0008   -0.0076
          22    0.0000    0.1008    0.0000   -0.0768   -0.0001   -0.0367    0.0060    0.0002
          23   -0.0004    0.1009   -0.0105   -0.2708   -0.0115   -0.0114    0.1924    0.0004
          24    0.0169    0.0024    0.4192   -0.0070    0.4494   -0.0007    0.0052   -0.0038


   Root No.       9        10        11        12        13        14        15        16

                 5 A'      6 A'      5 A"      7 A'      8 A'      9 A'     10 A'      6 A"  

                1150.8    1233.3    1236.5    1310.6    1323.5    1839.1    2548.1    2667.0
  
           1    0.0260   -0.0237   -0.0000    0.0091    0.0768   -0.0458    0.0018    0.0000
           2   -0.0314   -0.0418    0.0009   -0.0179   -0.0175   -0.0144   -0.0010    0.0015
           3   -0.0006   -0.0011   -0.0362   -0.0004   -0.0004   -0.0003   -0.0000   -0.0548
           4   -0.0269    0.0101    0.0000   -0.0870   -0.0335    0.2512   -0.0123    0.0000
           5    0.0364   -0.0093    0.0001    0.0957    0.0327    0.2281    0.0107    0.0001
           6    0.0009   -0.0002   -0.0044    0.0024    0.0009    0.0058    0.0003   -0.0023
           7    0.1711   -0.0768   -0.0001    0.2503   -0.2154    0.0264    0.0022    0.0001
           8    0.0405   -0.0474   -0.0102    0.0978   -0.1143   -0.0105   -0.0025    0.0007
           9    0.0012   -0.0025    0.4030    0.0025   -0.0027   -0.0001   -0.0001   -0.0232
          10   -0.0763    0.1268   -0.1508    0.1219   -0.2077   -0.0636    0.0033   -0.1894
          11    0.0066    0.2645    0.2273   -0.0060    0.1422    0.0417    0.0044   -0.2295
          12   -0.0263    0.2437    0.0469    0.0654   -0.0316   -0.0381   -0.0078    0.3498
          13   -0.0765    0.1263    0.1512    0.1218   -0.2077   -0.0637    0.0033    0.1893
          14    0.0053    0.2777   -0.2277   -0.0030    0.1408    0.0398    0.0041    0.2118
          15    0.0270   -0.2304    0.0343   -0.0653    0.0386    0.0403    0.0079    0.3611
          16    0.0213    0.0043    0.0001   -0.0063   -0.0046   -0.1387   -0.0015    0.0001
          17    0.0314    0.0061   -0.0001   -0.0181   -0.0087   -0.1641   -0.0021   -0.0001
          18    0.0007    0.0002    0.0008   -0.0007   -0.0000   -0.0042   -0.0000   -0.0001
          19   -0.0262   -0.0060   -0.0001    0.0364    0.0131   -0.0109   -0.0473   -0.0001
          20   -0.0675   -0.0031   -0.0000   -0.0312   -0.0073   -0.0122    0.0059   -0.0000
          21   -0.0018    0.0000   -0.0010   -0.0007   -0.0004   -0.0004    0.0001   -0.0004
          22    0.0703    0.0134   -0.0001   -0.0436   -0.0208    0.0283    0.8905   -0.0001
          23    0.4599    0.0686    0.0000   -0.2339   -0.0959    0.1804   -0.1830   -0.0001
          24    0.0115    0.0019    0.0022   -0.0059   -0.0027    0.0044   -0.0045    0.0003


   Root No.      17        18

                11 A'     12 A'  

                2682.2    2774.7
  
           1   -0.0008    0.0243
           2   -0.0491   -0.0012
           3   -0.0015   -0.0001
           4   -0.0006    0.0084
           5   -0.0024    0.0011
           6   -0.0001   -0.0000
           7   -0.1838   -0.1210
           8    0.4199    0.3064
           9    0.0104    0.0072
          10    0.0985   -0.1169
          11    0.0990   -0.1516
          12   -0.1984    0.2478
          13    0.0988   -0.1168
          14    0.0889   -0.1397
          15    0.2026   -0.2547
          16    0.0007   -0.0017
          17    0.0002   -0.0015
          18    0.0002   -0.0006
          19   -0.0002   -0.0009
          20    0.0001    0.0005
          21    0.0000    0.0006
          22   -0.0039    0.0078
          23    0.0007    0.0014
          24    0.0002    0.0007


           MASS-WEIGHTED COORDINATE ANALYSIS (NORMAL COORDINATES)


   Root No.       1         2         3         4         5         6         7         8

                 1 A"      1 A'      2 A"      2 A'      3 A"      3 A'      4 A'      4 A"  

                 268.8     389.5     508.0     515.6     586.4     961.0    1014.8    1041.9
  
           1   -0.0000   -0.0776   -0.0001    0.3669    0.0000    0.2009    0.5562    0.0001
           2    0.0003    0.4207   -0.0024    0.0265   -0.0012   -0.3499    0.2033    0.0101
           3   -0.0061    0.0115    0.0688    0.0010    0.0654   -0.0070    0.0041   -0.4428
           4   -0.0000   -0.0949    0.0000    0.3237   -0.0000    0.0132   -0.2209   -0.0002
           5   -0.0003   -0.3267    0.0148   -0.1275   -0.0130   -0.1935   -0.0768   -0.0112
           6    0.0092   -0.0084   -0.5796   -0.0032    0.5128   -0.0049   -0.0021    0.4420
           7    0.0001    0.2041   -0.0002    0.1871    0.0001    0.5777   -0.1539   -0.0005
           8   -0.0140    0.2198   -0.0046    0.0424    0.0027    0.1385   -0.0758   -0.0062
           9    0.5557    0.0059    0.1707    0.0012   -0.1011    0.0042   -0.0025    0.2231
          10   -0.0452   -0.1327    0.2295    0.0744   -0.1863   -0.1739    0.3388    0.4993
          11   -0.4600    0.2145   -0.0295    0.0427    0.0116    0.1164   -0.0847   -0.0062
          12   -0.3093    0.0025    0.1223    0.0029   -0.0743    0.0040    0.0275    0.1591
          13    0.0452   -0.1331   -0.2294    0.0743    0.1862   -0.1747    0.3397   -0.4988
          14    0.4752    0.2142    0.0228    0.0428   -0.0075    0.1164   -0.0833   -0.0028
          15   -0.2855    0.0091    0.1235   -0.0005   -0.0747    0.0034   -0.0327    0.1590
          16   -0.0000   -0.3787   -0.0004   -0.4120    0.0004   -0.0499   -0.2737   -0.0011
          17    0.0048   -0.1300   -0.0045    0.4820    0.0060   -0.1611   -0.3083    0.0029
          18   -0.1890   -0.0038    0.1907    0.0120   -0.2480   -0.0054   -0.0071   -0.0865
          19   -0.0000    0.5065    0.0005   -0.2481   -0.0004   -0.1799   -0.1509    0.0011
          20   -0.0048   -0.1515    0.0008   -0.3474    0.0089    0.5428    0.1836    0.0017
          21    0.1885   -0.0042   -0.0221   -0.0090   -0.3588    0.0130    0.0053   -0.0471
          22    0.0000    0.1481    0.0001   -0.0895   -0.0002   -0.0524    0.0096    0.0003
          23   -0.0008    0.1483   -0.0170   -0.3156   -0.0172   -0.0163    0.3039    0.0007
          24    0.0303    0.0035    0.6752   -0.0081    0.6717   -0.0010    0.0081   -0.0059


   Root No.       9        10        11        12        13        14        15        16

                 5 A'      6 A'      5 A"      7 A'      8 A'      9 A'     10 A'      6 A"  

                1150.8    1233.3    1236.5    1310.6    1323.5    1839.1    2548.1    2667.0
  
           1    0.1401   -0.1413   -0.0003    0.0486    0.4815   -0.1069    0.0067    0.0001
           2   -0.1689   -0.2492    0.0055   -0.0960   -0.1099   -0.0336   -0.0036    0.0078
           3   -0.0033   -0.0066   -0.2171   -0.0021   -0.0025   -0.0006   -0.0002   -0.2792
           4   -0.1449    0.0603    0.0003   -0.4668   -0.2099    0.5865   -0.0457    0.0000
           5    0.1962   -0.0556    0.0004    0.5137    0.2050    0.5326    0.0398    0.0003
           6    0.0050   -0.0014   -0.0262    0.0129    0.0053    0.0136    0.0010   -0.0119
           7    0.2669   -0.1325   -0.0003    0.3892   -0.3913    0.0179    0.0024    0.0002
           8    0.0632   -0.0817   -0.0178    0.1520   -0.2077   -0.0071   -0.0026    0.0010
           9    0.0019   -0.0043    0.7007    0.0039   -0.0050   -0.0001   -0.0001   -0.0342
          10   -0.1190    0.2187   -0.2621    0.1895   -0.3772   -0.0430    0.0036   -0.2798
          11    0.0102    0.4563    0.3952   -0.0093    0.2583    0.0282    0.0048   -0.3390
          12   -0.0411    0.4203    0.0816    0.1018   -0.0574   -0.0258   -0.0083    0.5167
          13   -0.1194    0.2179    0.2629    0.1894   -0.3772   -0.0431    0.0036    0.2796
          14    0.0082    0.4789   -0.3958   -0.0047    0.2558    0.0269    0.0044    0.3128
          15    0.0422   -0.3975    0.0596   -0.1015    0.0701    0.0273    0.0085    0.5333
          16    0.1326    0.0295    0.0007   -0.0391   -0.0331   -0.3738   -0.0063    0.0005
          17    0.1952    0.0417   -0.0004   -0.1120   -0.0627   -0.4421   -0.0088   -0.0004
          18    0.0045    0.0013    0.0056   -0.0040   -0.0002   -0.0112   -0.0001   -0.0005
          19   -0.1631   -0.0415   -0.0008    0.2257    0.0949   -0.0295   -0.2025   -0.0006
          20   -0.4193   -0.0216   -0.0001   -0.1933   -0.0529   -0.0329    0.0252   -0.0002
          21   -0.0112    0.0001   -0.0071   -0.0041   -0.0030   -0.0011    0.0006   -0.0023
          22    0.1096    0.0232   -0.0001   -0.0677   -0.0379    0.0192    0.9569   -0.0002
          23    0.7173    0.1183    0.0001   -0.3637   -0.1743    0.1220   -0.1966   -0.0002
          24    0.0179    0.0033    0.0039   -0.0091   -0.0049    0.0030   -0.0049    0.0005


   Root No.      17        18

                11 A'     12 A'  

                2682.2    2774.7
  
           1   -0.0045    0.1500
           2   -0.2836   -0.0072
           3   -0.0085   -0.0004
           4   -0.0035    0.0516
           5   -0.0140    0.0068
           6   -0.0003   -0.0002
           7   -0.3077   -0.2163
           8    0.7032    0.5479
           9    0.0174    0.0128
          10    0.1650   -0.2090
          11    0.1658   -0.2710
          12   -0.3322    0.4432
          13    0.1654   -0.2089
          14    0.1489   -0.2499
          15    0.3393   -0.4554
          16    0.0044   -0.0123
          17    0.0016   -0.0104
          18    0.0010   -0.0044
          19   -0.0015   -0.0067
          20    0.0005    0.0033
          21    0.0003    0.0045
          22   -0.0066    0.0140
          23    0.0012    0.0026
          24    0.0004    0.0012


          DESCRIPTION OF VIBRATIONS


 VIBRATION          1    1A"         ATOM PAIR     ENERGY CONTRIBUTION    RADIAL
 FREQUENCY           268.82         C 1 -- H 5         +33.9% (198.0%)      0.1%
 TRANSITION DIPOLE   0.0138         C 1 -- H 4         +33.9% (198.0%)      0.0%
 TRAVEL (Ang.)       0.8721         C 1 -- H 3         +31.6% (191.1%)      0.1%
 REDUCED MASS        0.3298         C 2 -- O 6          +0.2% ( 15.9%)      0.0%
 EFFECTIVE MASS      1.1025
 FORCE CONSTANT      0.0140

 VIBRATION          2    1A'         ATOM PAIR     ENERGY CONTRIBUTION    RADIAL
 FREQUENCY           389.47         C 1 -- C 2         +29.6% (168.0%)      0.1%
 TRANSITION DIPOLE   0.1197         C 2 -- O 7         +22.7% (146.9%)      0.4%
 TRAVEL (Ang.)       0.2778         C 1 -- H 4         +12.0% (106.8%)     26.8%
 REDUCED MASS        2.2434         C 1 -- H 5         +12.0% (106.8%)     31.7%
 EFFECTIVE MASS     25.8532         C 1 -- H 3         +11.1% (102.7%)     69.8%
 FORCE CONSTANT      0.2005

 VIBRATION          3    2A"         ATOM PAIR     ENERGY CONTRIBUTION    RADIAL
 FREQUENCY           508.00         C 2 -- O 6         +21.6% ( 78.3%)      0.0%
 TRANSITION DIPOLE   0.6025         C 1 -- C 2         +20.5% ( 76.2%)      0.0%
 TRAVEL (Ang.)       0.2881         C 2 -- O 7         +17.7% ( 70.9%)      0.0%
 REDUCED MASS        1.5989         O 7 -- H 8         +17.4% ( 70.2%)      0.0%
 EFFECTIVE MASS      7.1729
 FORCE CONSTANT      0.2431

 VIBRATION          4    2A'         ATOM PAIR     ENERGY CONTRIBUTION    RADIAL
 FREQUENCY           515.55         C 2 -- O 6         +20.3% ( 94.8%)      0.0%
 TRANSITION DIPOLE   1.1787         C 2 -- O 7         +19.3% ( 92.5%)      0.0%
 TRAVEL (Ang.)       0.1925         C 1 -- C 2         +16.5% ( 85.6%)      7.3%
 REDUCED MASS        3.5289         C 1 -- H 3         +12.7% ( 75.1%)     19.5%
 EFFECTIVE MASS     17.3418         C 1 -- H 4         +11.3% ( 70.9%)     11.9%
 FORCE CONSTANT      0.5526         C 1 -- H 5         +11.3% ( 70.9%)     11.9%

 VIBRATION          5    3A"         ATOM PAIR     ENERGY CONTRIBUTION    RADIAL
 FREQUENCY           586.39         O 7 -- H 8         +26.0% ( 70.5%)      0.0%
 TRANSITION DIPOLE   1.1839         C 2 -- O 7         +21.2% ( 63.7%)      0.0%
 TRAVEL (Ang.)       0.2901         C 2 -- O 6         +20.5% ( 62.5%)      0.0%
 REDUCED MASS        1.3663         C 1 -- C 2         +14.4% ( 52.5%)      0.0%
 EFFECTIVE MASS      6.7449
 FORCE CONSTANT      0.2768

 VIBRATION          6    3A'         ATOM PAIR     ENERGY CONTRIBUTION    RADIAL
 FREQUENCY           961.01         C 1 -- H 3         +27.7% ( 74.7%)     26.8%
 TRANSITION DIPOLE   0.4720         C 2 -- O 7         +21.3% ( 65.5%)     99.1%
 TRAVEL (Ang.)       0.1790         C 1 -- H 5         +13.4% ( 52.0%)      2.4%
 REDUCED MASS        2.1907         C 1 -- H 4         +13.4% ( 51.9%)      1.6%
 EFFECTIVE MASS      9.0031         O 7 -- H 8         +12.0% ( 49.2%)      7.1%
 FORCE CONSTANT      1.1920         C 1 -- C 2         +10.4% ( 45.9%)     59.0%

 VIBRATION          7    4A'         ATOM PAIR     ENERGY CONTRIBUTION    RADIAL
 FREQUENCY          1014.82         C 1 -- C 2         +26.5% ( 76.8%)     88.5%
 TRANSITION DIPOLE   0.2396         C 1 -- H 3         +19.8% ( 66.4%)      0.0%
 TRAVEL (Ang.)       0.1793         C 1 -- H 5         +17.7% ( 62.8%)     46.1%
 REDUCED MASS        2.0666         C 1 -- H 4         +17.7% ( 62.7%)     42.1%
 EFFECTIVE MASS      9.4437
 FORCE CONSTANT      1.2540

 VIBRATION          8    4A"         ATOM PAIR     ENERGY CONTRIBUTION    RADIAL
 FREQUENCY          1041.94         C 1 -- H 4         +28.3% ( 66.7%)     15.4%
 TRANSITION DIPOLE   1.0253         C 1 -- H 5         +28.3% ( 66.6%)     13.9%
 TRAVEL (Ang.)       0.2452         C 1 -- C 2         +18.3% ( 53.6%)      0.0%
 REDUCED MASS        1.0763         C 1 -- H 3         +15.3% ( 49.1%)      0.1%
 EFFECTIVE MASS      4.8606
 FORCE CONSTANT      0.6885

 VIBRATION          9    5A'         ATOM PAIR     ENERGY CONTRIBUTION    RADIAL
 FREQUENCY          1150.79         O 7 -- H 8         +54.7% ( 84.6%)      3.6%
 TRANSITION DIPOLE   1.0254         C 2 -- O 7         +14.5% ( 43.6%)     86.2%
 TRAVEL (Ang.)       0.2348         C 1 -- C 2          +8.6% ( 33.5%)     37.9%
 REDUCED MASS        1.0624         C 2 -- O 6          +6.9% ( 30.0%)     41.6%
 EFFECTIVE MASS      5.5305
 FORCE CONSTANT      0.8290

 VIBRATION         10    6A'         ATOM PAIR     ENERGY CONTRIBUTION    RADIAL
 FREQUENCY          1233.27         C 1 -- H 5         +42.0% ( 59.3%)      3.4%
 TRANSITION DIPOLE   0.7132         C 1 -- H 4         +41.9% ( 59.2%)      1.9%
 TRAVEL (Ang.)       0.3441         C 1 -- C 2          +7.1% ( 24.3%)     52.0%
 REDUCED MASS        0.4618         C 1 -- H 3          +5.7% ( 21.8%)     83.3%
 EFFECTIVE MASS      1.8678
 FORCE CONSTANT      0.4138

 VIBRATION         11    5A"         ATOM PAIR     ENERGY CONTRIBUTION    RADIAL
 FREQUENCY          1236.53         C 1 -- H 3         +47.8% ( 59.4%)      0.1%
 TRANSITION DIPOLE   0.6566         C 1 -- H 4         +24.5% ( 42.5%)      7.3%
 TRAVEL (Ang.)       0.3803         C 1 -- H 5         +24.3% ( 42.3%)      5.3%
 REDUCED MASS        0.3770         C 1 -- C 2          +3.4% ( 15.8%)      0.0%
 EFFECTIVE MASS      1.3859
 FORCE CONSTANT      0.3396

 VIBRATION         12    7A'         ATOM PAIR     ENERGY CONTRIBUTION    RADIAL
 FREQUENCY          1310.62         C 2 -- O 7         +30.9% ( 68.1%)     83.1%
 TRANSITION DIPOLE   1.9120         C 1 -- C 2         +23.6% ( 59.5%)     41.7%
 TRAVEL (Ang.)       0.1315         C 2 -- O 6         +23.3% ( 59.1%)      7.0%
 REDUCED MASS        2.9734         O 7 -- H 8          +9.7% ( 38.2%)     70.7%
 EFFECTIVE MASS      7.4104
 FORCE CONSTANT      3.0093

 VIBRATION         13    8A'         ATOM PAIR     ENERGY CONTRIBUTION    RADIAL
 FREQUENCY          1323.55         C 1 -- H 5         +24.0% ( 58.4%)      0.8%
 TRANSITION DIPOLE   1.5526         C 1 -- H 4         +24.0% ( 58.4%)      1.0%
 TRAVEL (Ang.)       0.2331         C 1 -- H 3         +21.4% ( 55.2%)      6.5%
 REDUCED MASS        0.9373         C 1 -- C 2         +18.8% ( 51.8%)     82.8%
 EFFECTIVE MASS      4.5095
 FORCE CONSTANT      0.9674

 VIBRATION         14    9A'         ATOM PAIR     ENERGY CONTRIBUTION    RADIAL
 FREQUENCY          1839.06         C 2 -- O 6         +51.8% ( 97.1%)     99.5%
 TRANSITION DIPOLE   5.6129         C 1 -- C 2         +24.0% ( 66.1%)     60.0%
 TRAVEL (Ang.)       0.0749         C 2 -- O 7         +22.9% ( 64.5%)     14.6%
 REDUCED MASS        6.5365         O 7 -- H 8          +0.4% (  8.3%)      6.5%
 EFFECTIVE MASS     12.9739
 FORCE CONSTANT     13.0254

 VIBRATION         15   10A'         ATOM PAIR     ENERGY CONTRIBUTION    RADIAL
 FREQUENCY          2548.14         O 7 -- H 8         +99.5% ( 99.6%)     98.0%
 TRANSITION DIPOLE   1.3631         C 2 -- O 7          +0.3% (  5.6%)      6.5%
 TRAVEL (Ang.)       0.1673
 REDUCED MASS        0.9458
 EFFECTIVE MASS      1.3069
 FORCE CONSTANT      3.6181

 VIBRATION         16    6A"         ATOM PAIR     ENERGY CONTRIBUTION    RADIAL
 FREQUENCY          2667.00         C 1 -- H 5         +49.2% ( 72.3%)     96.8%
 TRANSITION DIPOLE   0.9984         C 1 -- H 4         +49.2% ( 72.3%)     98.3%
 TRAVEL (Ang.)       0.2248         C 1 -- C 2          +0.9% (  9.5%)      0.0%
 REDUCED MASS        0.5003         C 1 -- H 3          +0.8% (  9.3%)      0.1%
 EFFECTIVE MASS      1.4518
 FORCE CONSTANT      2.0965

 VIBRATION         17   11A'         ATOM PAIR     ENERGY CONTRIBUTION    RADIAL
 FREQUENCY          2682.24         C 1 -- H 3         +63.0% ( 81.9%)     99.4%
 TRANSITION DIPOLE   0.9093         C 1 -- H 5         +18.0% ( 43.8%)     88.5%
 TRAVEL (Ang.)       0.2282         C 1 -- H 4         +18.0% ( 43.8%)     85.1%
 REDUCED MASS        0.4829         C 1 -- C 2          +1.0% ( 10.2%)      0.0%
 EFFECTIVE MASS      1.4720
 FORCE CONSTANT      2.0469

 VIBRATION         18   12A'         ATOM PAIR     ENERGY CONTRIBUTION    RADIAL
 FREQUENCY          2774.75         C 1 -- H 3         +35.7% ( 57.5%)     95.4%
 TRANSITION DIPOLE   0.6743         C 1 -- H 4         +31.9% ( 54.3%)     94.7%
 TRAVEL (Ang.)       0.2731         C 1 -- H 5         +31.9% ( 54.3%)     94.6%
 REDUCED MASS        0.3258         C 1 -- C 2          +0.3% (  5.3%)     98.0%
 EFFECTIVE MASS      1.1546
 FORCE CONSTANT      1.4779

      SYMMETRY NUMBER FOR POINT-GROUP Cs  =  1


          SYSTEM IS A GROUND STATE



 monomer kyseliny octovej


          MOLECULE IS NOT LINEAR

          THERE ARE 18 GENUINE VIBRATIONS IN THIS SYSTEM
          THIS THERMODYNAMICS CALCULATION IS LIMITED TO
          MOLECULES WHICH HAVE NO INTERNAL ROTATIONS




                    CALCULATED THERMODYNAMIC PROPERTIES
                                          *
   TEMP. (K)   PARTITION FUNCTION   H.O.F.    ENTHALPY  HEAT CAPACITY ENTROPY
                                   KCAL/MOL   CAL/MOLE    CAL/K/MOL  CAL/K/MOL


 298.00  VIB.     0.2134D+01                   977.4017     8.7534     4.7866
         ROT.     0.3668D+05                   888.2803     2.9808    23.8666
         INT.     0.7830D+05                  1865.6820    11.7342    28.6532
         TRA.     0.4499D+27                  1480.4672     4.9680    38.1957
         TOT.                     -101.131    3346.1491    16.7023    66.8489

 200.00  VIB.     0.1333D+01                   311.2911     4.8401     2.1279
         ROT.     0.2017D+05                   596.1613     2.9808    22.6779
         INT.     0.2689D+05                   907.4524     7.8209    24.8058
         TRA.     0.2474D+27                   993.6021     4.9680    36.2146
         TOT.                     -102.577    1901.0545    12.7890    61.0204

 210.00  VIB.     0.1388D+01                   361.6831     5.2384     2.3737
         ROT.     0.2170D+05                   625.9693     2.9808    22.8233
         INT.     0.3012D+05                   987.6525     8.2192    25.1970
         TRA.     0.2661D+27                  1043.2822     4.9680    36.4569
         TOT.                     -102.447    2030.9347    13.1872    61.6540

 220.00  VIB.     0.1448D+01                   416.0602     5.6372     2.6266
         ROT.     0.2327D+05                   655.7774     2.9808    22.9620
         INT.     0.3369D+05                  1071.8376     8.6180    25.5886
         TRA.     0.2854D+27                  1092.9623     4.9680    36.6881
         TOT.                     -102.313    2164.7999    13.5860    62.2766

 230.00  VIB.     0.1513D+01                   474.4283     6.0366     2.8860
         ROT.     0.2487D+05                   685.5855     2.9808    23.0945
         INT.     0.3764D+05                  1160.0138     9.0174    25.9805
         TRA.     0.3051D+27                  1142.6424     4.9680    36.9089
         TOT.                     -102.175    2302.6562    13.9854    62.8894

 240.00  VIB.     0.1585D+01                   536.7933     6.4365     3.1513
         ROT.     0.2651D+05                   715.3935     2.9808    23.2214
         INT.     0.4201D+05                  1252.1868     9.4173    26.3727
         TRA.     0.3252D+27                  1192.3226     4.9680    37.1203
         TOT.                     -102.033    2444.5094    14.3853    63.4930

 250.00  VIB.     0.1662D+01                   603.1599     6.8368     3.4222
         ROT.     0.2819D+05                   745.2016     2.9808    23.3430
         INT.     0.4685D+05                  1348.3615     9.8176    26.7652
         TRA.     0.3457D+27                  1242.0027     4.9680    37.3231
         TOT.                     -101.887    2590.3641    14.7857    64.0884

 260.00  VIB.     0.1746D+01                   673.5306     7.2373     3.6981
         ROT.     0.2990D+05                   775.0097     2.9808    23.4600
         INT.     0.5220D+05                  1448.5403    10.2181    27.1581
         TRA.     0.3667D+27                  1291.6828     4.9680    37.5180
         TOT.                     -101.737    2740.2230    15.1861    64.6761

 270.00  VIB.     0.1837D+01                   747.9051     7.6375     3.9788
         ROT.     0.3164D+05                   804.8177     2.9808    23.5724
         INT.     0.5813D+05                  1552.7228    10.6183    27.5512
         TRA.     0.3880D+27                  1341.3629     4.9680    37.7055
         TOT.                     -101.584    2894.0857    15.5863    65.2567

 280.00  VIB.     0.1936D+01                   826.2791     8.0371     4.2638
         ROT.     0.3341D+05                   834.6258     2.9808    23.6809
         INT.     0.6468D+05                  1660.9049    11.0180    27.9446
         TRA.     0.4098D+27                  1391.0430     4.9680    37.8862
         TOT.                     -101.426    3051.9479    15.9860    65.8308

 290.00  VIB.     0.2043D+01                   908.6444     8.4357     4.5528
         ROT.     0.3522D+05                   864.4339     2.9808    23.7855
         INT.     0.7194D+05                  1773.0783    11.4165    28.3382
         TRA.     0.4319D+27                  1440.7231     4.9680    38.0605
         TOT.                     -101.264    3213.8014    16.3845    66.3987

 300.00  VIB.     0.2158D+01                   994.9878     8.8327     4.8454
         ROT.     0.3705D+05                   894.2419     2.9808    23.8865
         INT.     0.7998D+05                  1889.2297    11.8135    28.7319
         TRA.     0.4544D+27                  1490.4032     4.9680    38.2289
         TOT.                     -101.098    3379.6329    16.7815    66.9609

 310.00  VIB.     0.2283D+01                  1085.2914     9.2277     5.1415
         ROT.     0.3892D+05                   924.0500     2.9808    23.9842
         INT.     0.8887D+05                  2009.3414    12.2085    29.1258
         TRA.     0.4774D+27                  1540.0833     4.9680    38.3918
         TOT.                     -100.928    3549.4247    17.1765    67.5176

 320.00  VIB.     0.2418D+01                  1179.5325     9.6201     5.4407
         ROT.     0.4082D+05                   953.8580     2.9808    24.0789
         INT.     0.9871D+05                  2133.3905    12.6009    29.5196
         TRA.     0.5006D+27                  1589.7634     4.9680    38.5496
         TOT.                     -100.754    3723.1539    17.5689    68.0691

 330.00  VIB.     0.2564D+01                  1277.6837    10.0096     5.7427
         ROT.     0.4275D+05                   983.6661     2.9808    24.1706
         INT.     0.1096D+06                  2261.3498    12.9904    29.9133
         TRA.     0.5243D+27                  1639.4435     4.9680    38.7024
         TOT.                     -100.577    3900.7934    17.9584    68.6157

 340.00  VIB.     0.2721D+01                  1379.7134    10.3957     6.0472
         ROT.     0.4471D+05                  1013.4742     2.9808    24.2596
         INT.     0.1217D+06                  2393.1875    13.3765    30.3068
         TRA.     0.5483D+27                  1689.1236     4.9680    38.8507
         TOT.                     -100.395    4082.3112    18.3445    69.1576

 350.00  VIB.     0.2891D+01                  1485.5855    10.7781     6.3541
         ROT.     0.4669D+05                  1043.2822     2.9808    24.3460
         INT.     0.1350D+06                  2528.8678    13.7589    30.7001
         TRA.     0.5727D+27                  1738.8037     4.9680    38.9947
         TOT.                     -100.210    4267.6715    18.7269    69.6949

 360.00  VIB.     0.3074D+01                  1595.2607    11.1563     6.6630
         ROT.     0.4871D+05                  1073.0903     2.9808    24.4300
         INT.     0.1497D+06                  2668.3510    14.1371    31.0930
         TRA.     0.5974D+27                  1788.4838     4.9680    39.1347
         TOT.                     -100.021    4456.8348    19.1051    70.2277

 370.00  VIB.     0.3272D+01                  1708.6960    11.5300     6.9738
         ROT.     0.5075D+05                  1102.8984     2.9808    24.5116
         INT.     0.1661D+06                  2811.5944    14.5108    31.4855
         TRA.     0.6224D+27                  1838.1639     4.9680    39.2708
         TOT.                      -99.828    4649.7583    19.4789    70.7563

 380.00  VIB.     0.3486D+01                  1825.8458    11.8991     7.2862
         ROT.     0.5282D+05                  1132.7064     2.9808    24.5911
         INT.     0.1841D+06                  2958.5522    14.8799    31.8774
         TRA.     0.6478D+27                  1887.8440     4.9680    39.4033
         TOT.                      -99.631    4846.3963    19.8479    71.2807

 390.00  VIB.     0.3716D+01                  1946.6620    12.2633     7.6000
         ROT.     0.5492D+05                  1162.5145     2.9808    24.6686
         INT.     0.2041D+06                  3109.1765    15.2441    32.2686
         TRA.     0.6736D+27                  1937.5242     4.9680    39.5324
         TOT.                      -99.431    5046.7007    20.2121    71.8009

 400.00  VIB.     0.3965D+01                  2071.0945    12.6224     7.9150
         ROT.     0.5705D+05                  1192.3226     2.9808    24.7440
         INT.     0.2262D+06                  3263.4171    15.6032    32.6591
         TRA.     0.6997D+27                  1987.2043     4.9680    39.6581
         TOT.                      -99.227    5250.6213    20.5712    72.3172

   *: NOTE: HEATS OF FORMATION ARE RELATIVE TO THE
            ELEMENTS IN THEIR STANDARD STATE AT 298K
              (=  Standard Enthalpy of Formation).

            Hvib:  Zero-point energy is not included.
                   frequencies of less than zero cm-1 are not included.
            Hrot = (3/2)RT
            Htra = (3/2)RT + pV = (5/2)RT

            Heat capacity is Cp, not Cv

          For more information, see: HTTP://OpenMOPAC.net/Manual/thermochemistry.html


           FORCE CONSTANT IN CARTESIAN COORDINATES (Millidynes/A)

    ATOM   CHEMICAL       X               Y               Z
   NUMBER   SYMBOL  FORCE CONSTANT  FORCE CONSTANT  FORCE CONSTANT

      1       C        7.579668        6.598740        5.975723
      2       C       12.468286       11.430516        2.777106
      3       H        1.211642        3.581091        0.505503
      4       H        1.218919        1.373190        2.701348
      5       H        1.218517        1.241753        2.833187
      6       O        6.122745        8.770440        0.373981
      7       O        4.863942        6.155523        0.440003
      8       H        3.553044        0.837217        0.162617

 **********************
 *                    *
 * JOB ENDED NORMALLY *
 *                    *
 **********************



 TOTAL JOB TIME:             1.45 SECONDS

 == MOPAC DONE ==
