 *******************************************************************************
 **                                                                           **
 **                              MOPAC v22.1.0                                **
 **                                                                           **
 *******************************************************************************
 **          Digital Object Identifier (DOI): 10.5281/zenodo.6511958          **
 **    Visit the DOI location for information on how to cite this program.    **
 *******************************************************************************

                              PM7 CALCULATION RESULTS

 *******************************************************************************
 *  CALCULATION DONE:                                Thu Jan  4 10:04:44 2024  *
 *  PM7        - The PM7 Hamiltonian to be used
 *  SINGLET    - SPIN STATE DEFINED AS A SINGLET
 *
 *
 *
 *                 CHARGE ON SYSTEM = 0
 *
 *
 *
 *  PRECISE    - TIGHTER CRITERIA TO BE USED
 *  T=         - A TIME OF 172800.0 SECONDS REQUESTED
 *  DUMP=N     - RESTART FILE WRITTEN EVERY 7200.0 SECONDS REQUESTED
 *  LARGE      - EXPANDED OUTPUT TO BE PRINTED
 *******************************************************************************
 LARGE CHARGE=0 SINGLET PM7 PRECISE
 HF

   ATOM   CHEMICAL          X               Y               Z
  NUMBER   SYMBOL      (ANGSTROMS)     (ANGSTROMS)     (ANGSTROMS)
 
     1       H         -7.21904000  *   0.62894000  *   0.00000000  *
     2       F         -6.09911000  *   0.61555000  *   0.00000000  *
 


          CARTESIAN COORDINATES 

    NO.       ATOM           X           Y           Z

     1         H         -7.2190      0.6289      0.0000
     2         F         -6.0991      0.6156      0.0000

 General Reference for PM7:
 "Optimization of Parameters for Semiempirical Methods VI: More Modifications to the 
 NDDO Approximations and Re-optimization of Parameters", J. J. P. Stewart, J. Mol. Mod., 1:32, 19 (2013)
 https://link.springer.com/article/10.1007/s00894-012-1667-x

           Empirical Formula: H F  =     2 atoms



      MOLECULAR POINT GROUP   :   C*v 


 SINGLET STATE CALCULATION


      RHF CALCULATION, NO. OF DOUBLY OCCUPIED LEVELS = 4


          Geometry optimization using EF

          DIAGONAL MATRIX USED AS START HESSIAN

 CYCLE:     1 TIME:   0.000 TIME LEFT:  2.00D  GRAD.:   215.094 HEAT: -40.61059
 CYCLE:     2 TIME:   0.000 TIME LEFT:  2.00D  GRAD.:   129.669 HEAT: -59.42159
 CYCLE:     3 TIME:   0.000 TIME LEFT:  2.00D  GRAD.:    75.963 HEAT: -60.58579
 CYCLE:     4 TIME:   0.000 TIME LEFT:  2.00D  GRAD.:    15.353 HEAT: -61.88857
 CYCLE:     5 TIME:   0.000 TIME LEFT:  2.00D  GRAD.:     2.480 HEAT: -61.93449
 CYCLE:     6 TIME:   0.016 TIME LEFT:  2.00D  GRAD.:     0.058 HEAT: -61.93568
 CYCLE:     7 TIME:   0.000 TIME LEFT:  2.00D  GRAD.:     0.001 HEAT: -61.93568

     GRADIENT =  0.00079 IS LESS THAN CUTOFF =  0.05000



 -------------------------------------------------------------------------------
 LARGE CHARGE=0 SINGLET PM7 PRECISE
 HF



     GEOMETRY OPTIMISED USING EIGENVECTOR FOLLOWING (EF).     
     SCF FIELD WAS ACHIEVED                                   


                              PM7 CALCULATION
                                                       MOPAC v22.1.0 Windows
                                                       Thu Jan  4 10:04:45 2024




          FINAL HEAT OF FORMATION =        -61.93568 KCAL/MOL =    -259.13887 KJ/MOL


          COSMO AREA              =         39.27 SQUARE ANGSTROMS
          COSMO VOLUME            =         22.38 CUBIC ANGSTROMS

          GRADIENT NORM           =          0.00079          =       0.00056 PER ATOM
          IONIZATION POTENTIAL    =         15.795637 EV
          HOMO LUMO ENERGIES (EV) =        -15.796  4.730
          NO. OF FILLED LEVELS    =          4
          MOLECULAR WEIGHT        =         20.0063         POINT GROUP:  C*v 

          MOLECULAR DIMENSIONS (Angstroms)

            Atom       Atom       Distance
            F     2    H     1     0.89566
            F     2    H     1     0.00000
            H     1    F     2     0.00000


          SCF CALCULATIONS        =          8
 
          WALL-CLOCK TIME         =      0.051 SECONDS
          COMPUTATION TIME        =      0.047 SECONDS




   ATOM   CHEMICAL          X               Y               Z
  NUMBER   SYMBOL      (ANGSTROMS)     (ANGSTROMS)     (ANGSTROMS)
 
     1       H         -7.10688859  *   0.62618592  *  -0.00000000  *
     2       F         -6.21126141  *   0.61830408  *  -0.00000000  *

                             CARTESIAN COORDINATES

   1    H       -7.106888585     0.626185917    -0.000000001
   2    F       -6.211261413     0.618304082    -0.000000001


           Empirical Formula: H F  =     2 atoms



      MOLECULAR POINT GROUP   :   C*v 


                  EIGENVALUES  
 -40.58491 -17.55690 -15.79564 -15.79564   4.72956


              NET ATOMIC CHARGES AND DIPOLE CONTRIBUTIONS

  ATOM NO.   TYPE          CHARGE      No. of ELECS.   s-Pop       p-Pop       
    1          H           0.290306        0.7097     0.70969
    2          F          -0.290306        7.2903     1.95449     5.33581
 DIPOLE           X         Y         Z       TOTAL
 POINT-CHG.    -1.249     0.011     0.000     1.249
 HYBRID        -0.205     0.002    -0.000     0.205
 SUM           -1.454     0.013    -0.000     1.454


          ATOMIC ORBITAL ELECTRON POPULATIONS

     Atom    s        px        py        pz   
    1  H   0.70969
    2  F   1.95449   1.33586   1.99995   2.00000
 *******************************************************************************
 **                                                                           **
 **                              MOPAC v22.1.0                                **
 **                                                                           **
 *******************************************************************************
 **          Digital Object Identifier (DOI): 10.5281/zenodo.6511958          **
 **    Visit the DOI location for information on how to cite this program.    **
 *******************************************************************************

                              PM7 CALCULATION RESULTS

 *******************************************************************************
 *  CALCULATION DONE:                                Thu Jan  4 10:04:45 2024  *
 *  PM7        - The PM7 Hamiltonian to be used
 *  SINGLET    - SPIN STATE DEFINED AS A SINGLET
 *
 *
 *
 *                 CHARGE ON SYSTEM = 0
 *
 *
 *
 *  OLDGEO     - PREVIOUS GEOMETRY TO BE USED
 *  PRECISE    - TIGHTER CRITERIA TO BE USED
 *  T=         - A TIME OF 172800.0 SECONDS REQUESTED
 *  DUMP=N     - RESTART FILE WRITTEN EVERY 7200.0 SECONDS REQUESTED
 *  THERMO     - THERMODYNAMIC QUANTITIES TO BE CALCULATED
 *******************************************************************************
OLDGEO CHARGE=0 SINGLET PRECISE PM7 THERMO
 HF

   ATOM   CHEMICAL          X               Y               Z
  NUMBER   SYMBOL      (ANGSTROMS)     (ANGSTROMS)     (ANGSTROMS)
 
     1       H         -7.10688859  *   0.62618592  *  -0.00000000  *
     2       F         -6.21126141  *   0.61830408  *  -0.00000000  *
 


          CARTESIAN COORDINATES 

    NO.       ATOM           X           Y           Z

     1         H         -7.1069      0.6262     -0.0000
     2         F         -6.2113      0.6183     -0.0000

 General Reference for PM7:
 "Optimization of Parameters for Semiempirical Methods VI: More Modifications to the 
 NDDO Approximations and Re-optimization of Parameters", J. J. P. Stewart, J. Mol. Mod., 1:32, 19 (2013)
 https://link.springer.com/article/10.1007/s00894-012-1667-x

           Empirical Formula: H F  =     2 atoms



      MOLECULAR POINT GROUP   :   C*v 


 SINGLET STATE CALCULATION


      RHF CALCULATION, NO. OF DOUBLY OCCUPIED LEVELS = 4



          HEAT OF FORMATION =     -61.935677 KCALS/MOLE


          CARTESIAN COORDINATE DERIVATIVES

   NUMBER  ATOM         X            Y            Z

     1       H     -0.000190     0.000000     0.000000
     2       F      0.000190     0.000000     0.000000
 


          GRADIENT NORM =   0.00027

          MOLECULAR WEIGHT =   20.01



          ROTATIONAL CONSTANTS IN CM(-1)

          A =    0.00000000   B =   21.95536419   C =   21.95536416



           PRINCIPAL MOMENTS OF INERTIA IN UNITS OF 10**(-40)*GRAM-CM**2

          A =        0.0000   B =        1.2750   C =        1.2750


          ORIENTATION OF MOLECULE IN FORCE CALCULATION

    NO.       ATOM         X         Y         Z

     1          H      -0.8505    0.0000    0.0000
     2          F       0.0451    0.0000   -0.0000


    FIRST DERIVATIVES WILL BE USED IN THE CALCULATION OF SECOND DERIVATIVES

          ESTIMATED TIME TO COMPLETE CALCULATION =        0.00 SECONDS

    FOR POINT-GROUP C*v  THERE ARE  84 UNIQUE SYMMETRY FUNCTIONS.

 STEP:   1 TIME =     0.02 SECS, INTEGRAL =      0.02 TIME LEFT: 172799.98
 STEP:   2 TIME =     0.00 SECS, INTEGRAL =      0.02 TIME LEFT: 172799.98
 STEP:   3 TIME =     0.00 SECS, INTEGRAL =      0.02 TIME LEFT: 172799.98
 STEP:   4 TIME =     0.00 SECS, INTEGRAL =      0.02 TIME LEFT: 172799.98
 STEP:   5 TIME =     0.00 SECS, INTEGRAL =      0.02 TIME LEFT: 172799.98
 STEP:   6 TIME =     0.00 SECS, INTEGRAL =      0.02 TIME LEFT: 172799.98

(To convert to Hartree/Bohr^2, multiply by (10^(-21) x N x a0^2)/(4.184 x 627.51) =  0.0642)


           FORCE MATRIX IN MILLIDYNES/ANGSTROM


                  H  1       F  2
 ------------------------------
     H    1   9.003788
     F    2   9.003789   9.003791


          HEAT OF FORMATION =     -61.935677 KCALS/MOLE

          ZERO POINT ENERGY       5.712 KCAL/MOL


           NORMAL COORDINATE ANALYSIS (Total motion = 1 Angstrom)


   Root No.       1

                 1 Sig 

                3995.8
  
           1    0.9496
           2   -0.0000
           3   -0.0000
           4   -0.0504
           5    0.0000
           6    0.0000


           MASS-WEIGHTED COORDINATE ANALYSIS (NORMAL COORDINATES)


   Root No.       1

                 1 Sig 

                3995.8
  
           1    0.9745
           2   -0.0000
           3   -0.0000
           4   -0.2245
           5    0.0000
           6    0.0000


          DESCRIPTION OF VIBRATIONS


 VIBRATION          1    1Sig        ATOM PAIR     ENERGY CONTRIBUTION    RADIAL
 FREQUENCY          3995.80         H 1 -- F 2        +100.0% (100.0%)    100.0%
 TRANSITION DIPOLE   0.7954
 TRAVEL (Ang.)       0.1328
 REDUCED MASS        0.9571
 EFFECTIVE MASS      1.3758
 FORCE CONSTANT      9.0038

      SYMMETRY NUMBER FOR POINT-GROUP C*v =  1


          SYSTEM IS A GROUND STATE



 HF


          MOLECULE IS LINEAR

          THERE ARE  1 GENUINE VIBRATIONS IN THIS SYSTEM
          THIS THERMODYNAMICS CALCULATION IS LIMITED TO
          MOLECULES WHICH HAVE NO INTERNAL ROTATIONS




                    CALCULATED THERMODYNAMIC PROPERTIES
                                          *
   TEMP. (K)   PARTITION FUNCTION   H.O.F.    ENTHALPY  HEAT CAPACITY ENTROPY
                                   KCAL/MOL   CAL/MOLE    CAL/K/MOL  CAL/K/MOL


 298.00  VIB.     0.1000D+01                     0.0000     0.0000     0.0000
         ROT.     0.9434D+01                   592.1869     1.9872     6.4471
         INT.     0.9434D+01                   592.1869     1.9872     6.4471
         TRA.     0.8651D+26                  1480.4672     4.9680    34.9193
         TOT.                      -61.936    2072.6541     6.9552    41.3663

 200.00  VIB.     0.1000D+01                     0.0000     0.0000     0.0000
         ROT.     0.6331D+01                   397.4409     1.9872     5.6546
         INT.     0.6331D+01                   397.4409     1.9872     5.6546
         TRA.     0.4757D+26                   993.6021     4.9680    32.9381
         TOT.                      -62.617    1391.0430     6.9552    38.5927

 210.00  VIB.     0.1000D+01                     0.0000     0.0000     0.0000
         ROT.     0.6648D+01                   417.3129     1.9872     5.7516
         INT.     0.6648D+01                   417.3129     1.9872     5.7516
         TRA.     0.5118D+26                  1043.2822     4.9680    33.1805
         TOT.                      -62.548    1460.5951     6.9552    38.9321

 220.00  VIB.     0.1000D+01                     0.0000     0.0000     0.0000
         ROT.     0.6964D+01                   437.1849     1.9872     5.8440
         INT.     0.6964D+01                   437.1849     1.9872     5.8440
         TRA.     0.5488D+26                  1092.9623     4.9680    33.4116
         TOT.                      -62.478    1530.1473     6.9552    39.2556

 230.00  VIB.     0.1000D+01                     0.0000     0.0000     0.0000
         ROT.     0.7281D+01                   457.0570     1.9872     5.9324
         INT.     0.7281D+01                   457.0570     1.9872     5.9324
         TRA.     0.5866D+26                  1142.6424     4.9680    33.6325
         TOT.                      -62.409    1599.6994     6.9552    39.5648

 240.00  VIB.     0.1000D+01                     0.0000     0.0000     0.0000
         ROT.     0.7598D+01                   476.9290     1.9872     6.0169
         INT.     0.7598D+01                   476.9290     1.9872     6.0169
         TRA.     0.6253D+26                  1192.3226     4.9680    33.8439
         TOT.                      -62.339    1669.2516     6.9552    39.8608

 250.00  VIB.     0.1000D+01                     0.0000     0.0000     0.0000
         ROT.     0.7914D+01                   496.8011     1.9872     6.0980
         INT.     0.7914D+01                   496.8011     1.9872     6.0980
         TRA.     0.6648D+26                  1242.0027     4.9680    34.0467
         TOT.                      -62.270    1738.8037     6.9552    40.1448

 260.00  VIB.     0.1000D+01                     0.0000     0.0000     0.0000
         ROT.     0.8231D+01                   516.6731     1.9872     6.1760
         INT.     0.8231D+01                   516.6731     1.9872     6.1760
         TRA.     0.7050D+26                  1291.6828     4.9680    34.2416
         TOT.                      -62.200    1808.3559     6.9552    40.4175

 270.00  VIB.     0.1000D+01                     0.0000     0.0000     0.0000
         ROT.     0.8547D+01                   536.5451     1.9872     6.2510
         INT.     0.8547D+01                   536.5452     1.9872     6.2510
         TRA.     0.7461D+26                  1341.3629     4.9680    34.4291
         TOT.                      -62.130    1877.9080     6.9552    40.6800

 280.00  VIB.     0.1000D+01                     0.0000     0.0000     0.0000
         ROT.     0.8864D+01                   556.4172     1.9872     6.3233
         INT.     0.8864D+01                   556.4172     1.9872     6.3233
         TRA.     0.7879D+26                  1391.0430     4.9680    34.6097
         TOT.                      -62.061    1947.4602     6.9552    40.9330

 290.00  VIB.     0.1000D+01                     0.0000     0.0000     0.0000
         ROT.     0.9180D+01                   576.2892     1.9872     6.3930
         INT.     0.9180D+01                   576.2893     1.9872     6.3930
         TRA.     0.8305D+26                  1440.7231     4.9680    34.7841
         TOT.                      -61.991    2017.0124     6.9552    41.1771

 300.00  VIB.     0.1000D+01                     0.0001     0.0000     0.0000
         ROT.     0.9497D+01                   596.1613     1.9872     6.4604
         INT.     0.9497D+01                   596.1613     1.9872     6.4604
         TRA.     0.8738D+26                  1490.4032     4.9680    34.9525
         TOT.                      -61.922    2086.5645     6.9552    41.4128

 310.00  VIB.     0.1000D+01                     0.0001     0.0000     0.0000
         ROT.     0.9814D+01                   616.0333     1.9872     6.5255
         INT.     0.9814D+01                   616.0334     1.9872     6.5255
         TRA.     0.9179D+26                  1540.0833     4.9680    35.1154
         TOT.                      -61.852    2156.1167     6.9552    41.6409

 320.00  VIB.     0.1000D+01                     0.0002     0.0000     0.0000
         ROT.     0.1013D+02                   635.9054     1.9872     6.5886
         INT.     0.1013D+02                   635.9055     1.9872     6.5886
         TRA.     0.9627D+26                  1589.7634     4.9680    35.2731
         TOT.                      -61.783    2225.6689     6.9552    41.8617

 330.00  VIB.     0.1000D+01                     0.0003     0.0000     0.0000
         ROT.     0.1045D+02                   655.7774     1.9872     6.6498
         INT.     0.1045D+02                   655.7777     1.9872     6.6498
         TRA.     0.1008D+27                  1639.4435     4.9680    35.4260
         TOT.                      -61.713    2295.2212     6.9552    42.0758

 340.00  VIB.     0.1000D+01                     0.0005     0.0000     0.0000
         ROT.     0.1076D+02                   675.6494     1.9872     6.7091
         INT.     0.1076D+02                   675.6500     1.9872     6.7091
         TRA.     0.1054D+27                  1689.1236     4.9680    35.5743
         TOT.                      -61.644    2364.7736     6.9552    42.2834

 350.00  VIB.     0.1000D+01                     0.0008     0.0000     0.0000
         ROT.     0.1108D+02                   695.5215     1.9872     6.7667
         INT.     0.1108D+02                   695.5223     1.9872     6.7667
         TRA.     0.1101D+27                  1738.8037     4.9680    35.7183
         TOT.                      -61.574    2434.3261     6.9553    42.4850

 360.00  VIB.     0.1000D+01                     0.0013     0.0001     0.0000
         ROT.     0.1140D+02                   715.3935     1.9872     6.8227
         INT.     0.1140D+02                   715.3949     1.9873     6.8227
         TRA.     0.1149D+27                  1788.4838     4.9680    35.8583
         TOT.                      -61.504    2503.8787     6.9553    42.6809

 370.00  VIB.     0.1000D+01                     0.0020     0.0001     0.0000
         ROT.     0.1171D+02                   735.2656     1.9872     6.8771
         INT.     0.1171D+02                   735.2676     1.9873     6.8771
         TRA.     0.1197D+27                  1838.1639     4.9680    35.9944
         TOT.                      -61.435    2573.4316     6.9553    42.8715

 380.00  VIB.     0.1000D+01                     0.0031     0.0001     0.0000
         ROT.     0.1203D+02                   755.1376     1.9872     6.9301
         INT.     0.1203D+02                   755.1407     1.9873     6.9301
         TRA.     0.1246D+27                  1887.8440     4.9680    36.1269
         TOT.                      -61.365    2642.9847     6.9553    43.0570

 390.00  VIB.     0.1000D+01                     0.0045     0.0002     0.0000
         ROT.     0.1235D+02                   775.0097     1.9872     6.9817
         INT.     0.1235D+02                   775.0142     1.9874     6.9817
         TRA.     0.1295D+27                  1937.5242     4.9680    36.2559
         TOT.                      -61.296    2712.5383     6.9554    43.2377

 400.00  VIB.     0.1000D+01                     0.0065     0.0002     0.0000
         ROT.     0.1266D+02                   794.8817     1.9872     7.0320
         INT.     0.1266D+02                   794.8882     1.9874     7.0321
         TRA.     0.1345D+27                  1987.2043     4.9680    36.3817
         TOT.                      -61.226    2782.0925     6.9555    43.4138

   *: NOTE: HEATS OF FORMATION ARE RELATIVE TO THE
            ELEMENTS IN THEIR STANDARD STATE AT 298K
              (=  Standard Enthalpy of Formation).

            Hvib:  Zero-point energy is not included.
                   frequencies of less than zero cm-1 are not included.
            Hrot = (3/2)RT
            Htra = (3/2)RT + pV = (5/2)RT

            Heat capacity is Cp, not Cv

          For more information, see: HTTP://OpenMOPAC.net/Manual/thermochemistry.html


           FORCE CONSTANT IN CARTESIAN COORDINATES (Millidynes/A)

    ATOM   CHEMICAL       X               Y               Z
   NUMBER   SYMBOL  FORCE CONSTANT  FORCE CONSTANT  FORCE CONSTANT

      1       H        9.003789       -0.001159       -0.001159
      2       F        9.003789       -0.001159       -0.001159

 **********************
 *                    *
 * JOB ENDED NORMALLY *
 *                    *
 **********************



 TOTAL JOB TIME:             0.15 SECONDS

 == MOPAC DONE ==
