 *******************************************************************************
 **                                                                           **
 **                              MOPAC v22.1.1                                **
 **                                                                           **
 *******************************************************************************
 **          Digital Object Identifier (DOI): 10.5281/zenodo.6511958          **
 **    Visit the DOI location for information on how to cite this program.    **
 *******************************************************************************

                              PM6 CALCULATION RESULTS

 *******************************************************************************
 *  CALCULATION DONE:                                Tue Feb 20 18:38:54 2024  *
 *  PM6        - The PM6 Hamiltonian to be used
 *  SINGLET    - SPIN STATE DEFINED AS A SINGLET
 *  NOOPT      - DO NOT OPTIMIZE ANY COORDINATES
 *
 *
 *
 *                 CHARGE ON SYSTEM = 0
 *
 *
 *
 *  T=         - A TIME OF 172800.0 SECONDS REQUESTED
 *  DUMP=N     - RESTART FILE WRITTEN EVERY 7200.0 SECONDS REQUESTED
 *******************************************************************************
 CHARGE=0 SINGLET NOOPT PM6
 Cyklohexan, lodicka, bod 1

   ATOM   CHEMICAL          X               Y               Z
  NUMBER   SYMBOL      (ANGSTROMS)     (ANGSTROMS)     (ANGSTROMS)
 
     1       C         -3.20390000      2.76472000     -0.30235000   
     2       C         -4.46907000      1.73502000      0.21447000   
     3       C         -4.44570000      0.26855000     -0.20814000   
     4       C         -3.17233000     -0.36540000     -1.07359000   
     5       C         -1.92069000      0.30942000     -0.21039000   
     6       C         -1.94405000      1.77590000      0.21223000   
     7       H         -3.21407000      3.71232000      0.19449000   
     8       H         -3.20397000      3.05654000     -1.33178000   
     9       H         -5.38348000      2.15285000     -0.15181000   
    10       H         -4.35376000      1.69870000      1.27762000   
    11       H         -5.32232000      0.11094000     -0.80111000   
    12       H         -4.36360000     -0.24048000      0.72943000   
    13       H         -3.17823000     -0.04188000     -2.09349000   
    14       H         -3.15486000     -1.43197000     -1.15736000   
    15       H         -1.04005000      0.18024000     -0.80427000   
    16       H         -1.98573000     -0.20165000      0.72742000   
    17       H         -1.03652000      2.21711000     -0.14360000   
    18       H         -2.07679000      1.73027000      1.27298000   
 


          CARTESIAN COORDINATES 

    NO.       ATOM           X           Y           Z

     1         C         -3.2039      2.7647     -0.3024
     2         C         -4.4691      1.7350      0.2145
     3         C         -4.4457      0.2686     -0.2081
     4         C         -3.1723     -0.3654     -1.0736
     5         C         -1.9207      0.3094     -0.2104
     6         C         -1.9441      1.7759      0.2122
     7         H         -3.2141      3.7123      0.1945
     8         H         -3.2040      3.0565     -1.3318
     9         H         -5.3835      2.1528     -0.1518
    10         H         -4.3538      1.6987      1.2776
    11         H         -5.3223      0.1109     -0.8011
    12         H         -4.3636     -0.2405      0.7294
    13         H         -3.1782     -0.0419     -2.0935
    14         H         -3.1549     -1.4320     -1.1574
    15         H         -1.0400      0.1802     -0.8043
    16         H         -1.9857     -0.2016      0.7274
    17         H         -1.0365      2.2171     -0.1436
    18         H         -2.0768      1.7303      1.2730

 General Reference for PM6:
 "Optimization of Parameters for Semiempirical Methods V: Modification of NDDO Approximations
 and Application to 70 Elements", J. J. P. Stewart, J. Mol. Mod., 13, 1173-1213 (2007)
 URL: https://link.springer.com/article/10.1007/s00894-007-0233-4

           Empirical Formula: C6 H12  =    18 atoms



      MOLECULAR POINT GROUP   :   C2v 


 SINGLET STATE CALCULATION


      RHF CALCULATION, NO. OF DOUBLY OCCUPIED LEVELS = 18


 -------------------------------------------------------------------------------
 CHARGE=0 SINGLET NOOPT PM6
 Cyklohexan, lodicka, bod 1



     NO PARAMETERS MARKED FOR OPTIMIZATION, SO 1SCF WAS USED  
     SCF FIELD WAS ACHIEVED                                   


                              PM6 CALCULATION
                                                       MOPAC v22.1.1 Windows
                                                       Tue Feb 20 18:38:54 2024




          FINAL HEAT OF FORMATION =         26.86904 KCAL/MOL =     112.42005 KJ/MOL


          COSMO AREA              =        136.49 SQUARE ANGSTROMS
          COSMO VOLUME            =        131.52 CUBIC ANGSTROMS

          IONIZATION POTENTIAL    =         10.030757 EV
          HOMO LUMO ENERGIES (EV) =        -10.031  2.993
          NO. OF FILLED LEVELS    =         18
          MOLECULAR WEIGHT        =         84.1608         POINT GROUP:  C2v 

          MOLECULAR DIMENSIONS (Angstroms)

            Atom       Atom       Distance
            H    14    H     7     5.31928
            H     9    H    17     4.34741
            H    10    H     8     2.86658


          SCF CALCULATIONS        =          1
 
          WALL-CLOCK TIME         =      0.086 SECONDS
          COMPUTATION TIME        =      0.234 SECONDS




   ATOM   CHEMICAL          X               Y               Z
  NUMBER   SYMBOL      (ANGSTROMS)     (ANGSTROMS)     (ANGSTROMS)
 
     1       C         -3.20390000      2.76472000     -0.30235000   
     2       C         -4.46907000      1.73502000      0.21447000   
     3       C         -4.44570000      0.26855000     -0.20814000   
     4       C         -3.17233000     -0.36540000     -1.07359000   
     5       C         -1.92069000      0.30942000     -0.21039000   
     6       C         -1.94405000      1.77590000      0.21223000   
     7       H         -3.21407000      3.71232000      0.19449000   
     8       H         -3.20397000      3.05654000     -1.33178000   
     9       H         -5.38348000      2.15285000     -0.15181000   
    10       H         -4.35376000      1.69870000      1.27762000   
    11       H         -5.32232000      0.11094000     -0.80111000   
    12       H         -4.36360000     -0.24048000      0.72943000   
    13       H         -3.17823000     -0.04188000     -2.09349000   
    14       H         -3.15486000     -1.43197000     -1.15736000   
    15       H         -1.04005000      0.18024000     -0.80427000   
    16       H         -1.98573000     -0.20165000      0.72742000   
    17       H         -1.03652000      2.21711000     -0.14360000   
    18       H         -2.07679000      1.73027000      1.27298000   

                             CARTESIAN COORDINATES

   1    C       -3.203900000     2.764720000    -0.302350000
   2    C       -4.469070000     1.735020000     0.214470000
   3    C       -4.445700000     0.268550000    -0.208140000
   4    C       -3.172330000    -0.365400000    -1.073590000
   5    C       -1.920690000     0.309420000    -0.210390000
   6    C       -1.944050000     1.775900000     0.212230000
   7    H       -3.214070000     3.712320000     0.194490000
   8    H       -3.203970000     3.056540000    -1.331780000
   9    H       -5.383480000     2.152850000    -0.151810000
  10    H       -4.353760000     1.698700000     1.277620000
  11    H       -5.322320000     0.110940000    -0.801110000
  12    H       -4.363600000    -0.240480000     0.729430000
  13    H       -3.178230000    -0.041880000    -2.093490000
  14    H       -3.154860000    -1.431970000    -1.157360000
  15    H       -1.040050000     0.180240000    -0.804270000
  16    H       -1.985730000    -0.201650000     0.727420000
  17    H       -1.036520000     2.217110000    -0.143600000
  18    H       -2.076790000     1.730270000     1.272980000


           Empirical Formula: C6 H12  =    18 atoms



      MOLECULAR POINT GROUP   :   C2v 


                  EIGENVALUES  
 -28.65087 -25.88678 -25.02323 -22.10762 -20.25940 -18.48949 -16.88355 -15.18799
 -15.12720 -13.72637 -12.82472 -12.67901 -12.61162 -11.89168 -11.76804 -11.46858
 -11.04535 -10.03076   2.99308   3.60356   3.68661   4.26755   4.51032   4.60772
   5.91189   6.16752   6.17739   6.21421   6.50353   6.65674   6.66580   6.71779
   6.76978   6.82688   6.91101   6.96650


              NET ATOMIC CHARGES AND DIPOLE CONTRIBUTIONS

  ATOM NO.   TYPE          CHARGE      No. of ELECS.   s-Pop       p-Pop       
    1          C          -0.248642        4.2486     1.12125     3.12739
    2          C          -0.244000        4.2440     1.10340     3.14060
    3          C          -0.254551        4.2546     1.09622     3.15833
    4          C          -0.250073        4.2501     1.11356     3.13651
    5          C          -0.253317        4.2533     1.09598     3.15733
    6          C          -0.246774        4.2468     1.09970     3.14707
    7          H           0.117213        0.8828     0.88279
    8          H           0.124900        0.8751     0.87510
    9          H           0.122112        0.8779     0.87789
   10          H           0.126322        0.8737     0.87368
   11          H           0.125325        0.8747     0.87467
   12          H           0.129546        0.8705     0.87045
   13          H           0.122775        0.8772     0.87723
   14          H           0.123982        0.8760     0.87602
   15          H           0.125128        0.8749     0.87487
   16          H           0.129475        0.8705     0.87053
   17          H           0.122903        0.8771     0.87710
   18          H           0.127676        0.8723     0.87232
 DIPOLE           X         Y         Z       TOTAL
 POINT-CHG.     0.003    -0.097     0.368     0.380
 HYBRID        -0.005     0.069    -0.112     0.131
 SUM           -0.002    -0.028     0.256     0.257


          ATOMIC ORBITAL ELECTRON POPULATIONS

     Atom    s        px        py        pz   
    1  C   1.12125   0.98966   1.01351   1.12422
    2  C   1.10340   1.05226   0.98764   1.10071
    3  C   1.09622   1.05368   1.01803   1.08662
    4  C   1.11356   0.98944   1.08130   1.06577
    5  C   1.09598   1.05535   1.01542   1.08656
    6  C   1.09970   1.05328   0.99083   1.10296
    7  H   0.88279
    8  H   0.87510
    9  H   0.87789
   10  H   0.87368
   11  H   0.87467
   12  H   0.87045
   13  H   0.87723
   14  H   0.87602
   15  H   0.87487
   16  H   0.87053
   17  H   0.87710
   18  H   0.87232

 **********************
 *                    *
 * JOB ENDED NORMALLY *
 *                    *
 **********************



 TOTAL JOB TIME:             0.10 SECONDS

 == MOPAC DONE ==
