 *******************************************************************************
 **                                                                           **
 **                              MOPAC v22.1.1                                **
 **                                                                           **
 *******************************************************************************
 **          Digital Object Identifier (DOI): 10.5281/zenodo.6511958          **
 **    Visit the DOI location for information on how to cite this program.    **
 *******************************************************************************

                              PM7 CALCULATION RESULTS

 *******************************************************************************
 *  CALCULATION DONE:                                Tue Feb 20 18:43:57 2024  *
 *  PM7        - The PM7 Hamiltonian to be used
 *  GEO-OK     - OVERRIDE INTERATOMIC DISTANCE AND OTHER SAFETY CHECKS
 *  SINGLET    - SPIN STATE DEFINED AS A SINGLET
 *  GEO_DAT    - DATA SET GEOMETRY IS IN FILE "lodicka_bod1.arc"
 *  GEO_REF    - REFERENCE GEOMETRY IS IN FILE "lodicka_bod2.arc"
 *               (NO BIAS TOWARDS THE REFERENCE GEOMETRY WILL BE APPLIED)
 *
 *
 *
 *                 CHARGE ON SYSTEM = 0
 *
 *
 *
 *  PRECISE    - TIGHTER CRITERIA TO BE USED
 *  SADDLE     - TRANSITION STATE TO BE OPTIMIZED
 *  T=         - A TIME OF 172800.0 SECONDS REQUESTED
 *  DUMP=N     - RESTART FILE WRITTEN EVERY 7200.0 SECONDS REQUESTED
 *******************************************************************************
  GEO_DAT="lodicka_bod1.arc" GEO_REF="lodicka_bod2.arc" SADDLE  GEO-OK CHARGE=0 SINGLET  PM7 PRECISE
 Cyklohexan, lodicka, TS

   ATOM   CHEMICAL          X               Y               Z
  NUMBER   SYMBOL      (ANGSTROMS)     (ANGSTROMS)     (ANGSTROMS)
 
     1       C         -3.20390000  *   2.76472000  *  -0.30235000  *
     2       C         -4.46907000  *   1.73502000  *   0.21447000  *
     3       C         -4.44570000  *   0.26855000  *  -0.20814000  *
     4       C         -3.17233000  *  -0.36540000  *  -1.07359000  *
     5       C         -1.92069000  *   0.30942000  *  -0.21039000  *
     6       C         -1.94405000  *   1.77590000  *   0.21223000  *
     7       H         -3.21407000  *   3.71232000  *   0.19449000  *
     8       H         -3.20397000  *   3.05654000  *  -1.33178000  *
     9       H         -5.38348000  *   2.15285000  *  -0.15181000  *
    10       H         -4.35376000  *   1.69870000  *   1.27762000  *
    11       H         -5.32232000  *   0.11094000  *  -0.80111000  *
    12       H         -4.36360000  *  -0.24048000  *   0.72943000  *
    13       H         -3.17823000  *  -0.04188000  *  -2.09349000  *
    14       H         -3.15486000  *  -1.43197000  *  -1.15736000  *
    15       H         -1.04005000  *   0.18024000  *  -0.80427000  *
    16       H         -1.98573000  *  -0.20165000  *   0.72742000  *
    17       H         -1.03652000  *   2.21711000  *  -0.14360000  *
    18       H         -2.07679000  *   1.73027000  *   1.27298000  *
 

           The two systems have different chain letters, so all chain letters changed to "X"

                        After docking

                     Atoms that move a lot

                     Atom Label             GEO_REF Coordinates       Movement    Integral

            (         10          X    )  -4.950   2.065   0.950        0.78         0.78
            (         16          X    )  -1.479  -0.417   0.026        0.74         1.52
            (          9          X    )  -5.235   2.246  -0.773        0.64         2.15
            (         15          X    )  -1.230   0.533  -1.429        0.53         2.68
            (         11          X    )  -5.383  -0.088  -0.574        0.49         3.17
            (          8          X    )  -3.025   2.827  -1.254        0.40         3.57
            (         14          X    )  -1.062   2.218   0.195        0.40         3.97
            (         18          X    )  -3.455   0.370  -2.123        0.36         4.33
            (         12          X    )  -4.262  -0.153   0.779        0.31         4.63
            (         13          X    )  -2.153   1.406   1.309        0.27         4.91
            (          1          X    )  -3.173   2.564  -0.204        0.26         5.16
            (          4          X    )  -3.283  -0.089  -1.145        0.24         5.40
            (          7          X    )  -3.179   3.498   0.363        0.23         5.63
            (         17          X    )  -3.272  -1.171  -1.296        0.23         5.86
            (          2          X    )  -4.535   1.844  -0.037        0.23         6.08
            (          5          X    )  -1.912   0.375  -0.590        0.20         6.28
            (          3          X    )  -4.435   0.305  -0.198        0.18         6.46
            (          6          X    )  -2.004   1.669   0.258        0.16         6.62

     Residues that move a lot and their (Movement in Angstroms, per atom)


   Difference between GEO_DAT and GEO_REF: 6.625 = total,  0.3681 = Average,  0.4128 = RMS, in Angstroms

 General Reference for PM7:
 "Optimization of Parameters for Semiempirical Methods VI: More Modifications to the 
 NDDO Approximations and Re-optimization of Parameters", J. J. P. Stewart, J. Mol. Mod., 1:32, 19 (2013)
 https://link.springer.com/article/10.1007/s00894-012-1667-x

           Empirical Formula: C6 H12  =    18 atoms



      MOLECULAR POINT GROUP   :   C2v 


 SINGLET STATE CALCULATION


      RHF CALCULATION, NO. OF DOUBLY OCCUPIED LEVELS = 18



  CARTESIAN GEOMETRY OF FIRST SYSTEM


   1    C         -3.17300       2.56390      -0.20350
   2    C         -4.53540       1.84370      -0.03690
   3    C         -4.43500       0.30520      -0.19800
   4    C         -3.28290      -0.08870      -1.14530
   5    C         -1.91200       0.37480      -0.59010
   6    C         -2.00430       1.66900       0.25820
   7    H         -3.17910       3.49790       0.36350
   8    H         -3.02490       2.82660      -1.25420
   9    H         -5.23540       2.24570      -0.77340
  10    H         -4.94990       2.06520       0.94970
  11    H         -5.38270      -0.08770      -0.57390
  12    H         -4.26200      -0.15320       0.77920
  13    H         -2.15340       1.40630       1.30890
  14    H         -1.06180       2.21800       0.19500
  15    H         -1.23050       0.53320      -1.42950
  16    H         -1.47870      -0.41670       0.02630
  17    H         -3.27190      -1.17090      -1.29550
  18    H         -3.45490       0.36970      -2.12280


  CARTESIAN GEOMETRY OF SECOND SYSTEM


   1    C         -3.21810       2.79918      -0.29184
   2    C         -4.48835       1.74600       0.16127
   3    C         -4.48528       0.31525      -0.37036
   4    C         -3.22841      -0.26433      -1.29595
   5    C         -1.96016       0.33148      -0.39948
   6    C         -1.96322       1.76223       0.13217
   7    H         -3.21268       3.70684       0.27474
   8    H         -3.22648       3.16748      -1.29642
   9    H         -5.40227       2.19908      -0.16178
  10    H         -4.36165       1.62881       1.21726
  11    H         -5.37005       0.21120      -0.96304
  12    H         -4.39821      -0.26353       0.52536
  13    H         -2.08467       1.63836       1.18801
  14    H         -1.05505       2.22002      -0.20031
  15    H         -1.08758       0.23866      -1.01177
  16    H         -2.02023      -0.24792       0.49807
  17    H         -3.22322      -1.32172      -1.45966
  18    H         -3.24217       0.13491      -2.28858


   "DISTANCE":     1.751241


  REACTION COORDINATE VECTOR


   1    C          0.04510      -0.23528       0.08834
   2    C         -0.04705       0.09770      -0.19817
   3    C          0.05028      -0.01005       0.17236
   4    C         -0.05449       0.17563       0.15065
   5    C          0.04816       0.04332      -0.19062
   6    C         -0.04108      -0.09323       0.12603
   7    H          0.03358      -0.20894       0.08876
   8    H          0.20158      -0.34088       0.04222
   9    H          0.16687       0.04662      -0.61162
  10    H         -0.58825       0.43639      -0.26756
  11    H         -0.01265      -0.29890       0.38914
  12    H          0.13621       0.11033       0.25384
  13    H         -0.06873      -0.23206       0.12089
  14    H         -0.00675      -0.00202       0.39531
  15    H         -0.14292       0.29454      -0.41773
  16    H          0.54153      -0.16878      -0.47177
  17    H         -0.04868       0.15082       0.16416
  18    H         -0.21273       0.23479       0.16578
 *+*+*+*+*+*+*+*+*+*+*+*+*+*+*+*+*+*+*+*+*+*+*+*+*+*+*+*+*+*+*+*+*+*+*+*+*+*+*+*+
            BAR SHORTENED BY       0.000 PERCENT
 GRADIENT CRITERION IN FLEPO =     0.200


          FOR POINT    1 SECOND STRUCTURE
 DISTANCE A - B      1.751241
 HEAT              -24.004344
 GRADIENT NORM       0.471779
 DIRECTION COSINE   -0.000002
 GEO-OK CHARGE=0 SINGLET  PM7 PRECISE
 Cyklohexan, lodicka, TS

  C(          1          X    )   0.00000000 +0    0.0000000 +0    0.0000000 +0
  C(          2          X    )   1.53769961 +1    0.0000000 +0    0.0000000 +0     1     0     0
  C(          3          X    )   1.53851393 +1  111.9630283 +1    0.0000000 +0     2     1     0
  C(          4          X    )   1.53266811 +1  111.1481102 +1  -28.8444241 +1     3     2     1
  C(          5          X    )   1.53757962 +1  110.8935419 +1   64.3088644 +1     4     3     2
  C(          6          X    )   1.53270656 +1  110.8976235 +1  -32.7156479 +1     1     2     3
  H(          7          X    )   1.10465612 +1  110.0269304 +1 -155.0008966 +1     1     2     3
  H(          8          X    )   1.10598699 +1  109.9643148 +1   88.6359719 +1     1     2     3
  H(          9          X    )   1.10485654 +1  109.4966036 +1 -122.2683238 +1     2     1     3
  H(         10          X    )   1.10519334 +1  109.8801440 +1  121.7751539 +1     2     1     3
  H(         11          X    )   1.10441569 +1  110.0142969 +1 -151.2706791 +1     3     2     1
  H(         12          X    )   1.10617996 +1  109.8379484 +1   92.4144651 +1     3     2     1
  H(         13          X    )   1.10616080 +1  109.4106245 +1  -57.3751594 +1     6     1     2
  H(         14          X    )   1.10430553 +1  110.2778814 +1 -173.5726516 +1     6     1     2
  H(         15          X    )   1.10495677 +1  109.4653670 +1 -155.1107532 +1     5     4     3
  H(         16          X    )   1.10520860 +1  109.9398475 +1   88.8894298 +1     5     4     3
  H(         17          X    )   1.10449873 +1  110.3067671 +1 -173.5414638 +1     4     3     2
  H(         18          X    )   1.10606694 +1  109.6008685 +1  -57.2815347 +1     4     3     2
 
 TIME=     0.84
  REACTANTS AND PRODUCTS SWAPPED AROUND
 *+*+*+*+*+*+*+*+*+*+*+*+*+*+*+*+*+*+*+*+*+*+*+*+*+*+*+*+*+*+*+*+*+*+*+*+*+*+*+*+
            BAR SHORTENED BY       1.000 PERCENT
 GRADIENT CRITERION IN FLEPO =     0.200


          FOR POINT    2 FIRST  STRUCTURE
 DISTANCE A - B      1.733729
 HEAT              -23.468449
 GRADIENT NORM       0.464231
 DIRECTION COSINE    0.273397
 GEO-OK CHARGE=0 SINGLET  PM7 PRECISE
 Cyklohexan, lodicka, TS

  C(          1          X    )   0.00000000 +0    0.0000000 +0    0.0000000 +0
  C(          2          X    )   1.53317923 +1    0.0000000 +0    0.0000000 +0     1     0     0
  C(          3          X    )   1.54039699 +1  112.1734656 +1    0.0000000 +0     2     1     0
  C(          4          X    )   1.53411027 +1  112.3908795 +1    3.1776098 +1     3     2     1
  C(          5          X    )   1.53344125 +1  111.1117479 +1   51.3355744 +1     4     3     2
  C(          6          X    )   1.53364487 +1  110.7264980 +1  -55.4412238 +1     1     2     3
  H(          7          X    )   1.10542032 +1  110.0209076 +1 -177.2282842 +1     1     2     3
  H(          8          X    )   1.10620197 +1  110.0471688 +1   66.4497746 +1     1     2     3
  H(          9          X    )   1.10491210 +1  109.6288387 +1 -122.5885505 +1     2     1     3
  H(         10          X    )   1.10604623 +1  109.3289354 +1  121.7812004 +1     2     1     3
  H(         11          X    )   1.10513028 +1  110.0113139 +1 -119.0475438 +1     3     2     1
  H(         12          X    )   1.10595739 +1  109.5503481 +1  125.0159671 +1     3     2     1
  H(         13          X    )   1.10596188 +1  109.3925778 +1  -69.2176012 +1     6     1     2
  H(         14          X    )   1.10484641 +1  109.5799607 +1  175.1593609 +1     6     1     2
  H(         15          X    )   1.10511265 +1  109.5266665 +1 -176.7211070 +1     5     4     3
  H(         16          X    )   1.10576421 +1  109.3547800 +1   67.6901245 +1     5     4     3
  H(         17          X    )   1.10574862 +1  109.8930518 +1  173.1948106 +1     4     3     2
  H(         18          X    )   1.10622601 +1  110.0204652 +1  -70.6118888 +1     4     3     2
 
 TIME=     1.10
  REACTANTS AND PRODUCTS SWAPPED AROUND
 *+*+*+*+*+*+*+*+*+*+*+*+*+*+*+*+*+*+*+*+*+*+*+*+*+*+*+*+*+*+*+*+*+*+*+*+*+*+*+*+
            BAR SHORTENED BY       1.000 PERCENT
 GRADIENT CRITERION IN FLEPO =     0.200
           THERE HAVE BEEN 3 ATTEMPTS TO REDUCE THE GRADIENT.
           DURING THESE ATTEMPTS THE ENERGY DROPPED BY LESS THAN 0.0 KCAL/MOLE
           FURTHER CALCULATION IS NOT JUSTIFIED AT THIS TIME.


          FOR POINT    3 SECOND STRUCTURE
 DISTANCE A - B      1.716391
 HEAT              -24.002183
 GRADIENT NORM       0.620705
 DIRECTION COSINE    0.217572
 GEO-OK CHARGE=0 SINGLET  PM7 PRECISE
 Cyklohexan, lodicka, TS

  C(          1          X    )   0.00000000 +0    0.0000000 +0    0.0000000 +0
  C(          2          X    )   1.53767783 +1    0.0000000 +0    0.0000000 +0     1     0     0
  C(          3          X    )   1.53872743 +1  111.9632487 +1    0.0000000 +0     2     1     0
  C(          4          X    )   1.53260656 +1  111.1756632 +1  -28.5227781 +1     3     2     1
  C(          5          X    )   1.53764633 +1  110.9168715 +1   64.2130318 +1     4     3     2
  C(          6          X    )   1.53260774 +1  110.9373712 +1  -32.9873739 +1     1     2     3
  H(          7          X    )   1.10453335 +1  109.9917987 +1 -155.2687939 +1     1     2     3
  H(          8          X    )   1.10593307 +1  109.9508585 +1   88.3857871 +1     1     2     3
  H(          9          X    )   1.10488863 +1  109.4567553 +1 -122.2489915 +1     2     1     3
  H(         10          X    )   1.10476793 +1  109.8916225 +1  121.7917772 +1     2     1     3
  H(         11          X    )   1.10434937 +1  109.9934120 +1 -150.9043327 +1     3     2     1
  H(         12          X    )   1.10601400 +1  109.8703317 +1   92.7495100 +1     3     2     1
  H(         13          X    )   1.10614968 +1  109.4102665 +1  -57.4324966 +1     6     1     2
  H(         14          X    )   1.10432222 +1  110.2340650 +1 -173.6265581 +1     6     1     2
  H(         15          X    )   1.10470081 +1  109.4636848 +1 -155.3402189 +1     5     4     3
  H(         16          X    )   1.10499671 +1  109.9090603 +1   88.6776666 +1     5     4     3
  H(         17          X    )   1.10467930 +1  110.2853766 +1 -173.6565197 +1     4     3     2
  H(         18          X    )   1.10594529 +1  109.5725564 +1  -57.3476686 +1     4     3     2
 
 *+*+*+*+*+*+*+*+*+*+*+*+*+*+*+*+*+*+*+*+*+*+*+*+*+*+*+*+*+*+*+*+*+*+*+*+*+*+*+*+
            BAR SHORTENED BY       1.000 PERCENT
 GRADIENT CRITERION IN FLEPO =     0.200
           THERE HAVE BEEN 3 ATTEMPTS TO REDUCE THE GRADIENT.
           DURING THESE ATTEMPTS THE ENERGY DROPPED BY LESS THAN 0.0 KCAL/MOLE
           FURTHER CALCULATION IS NOT JUSTIFIED AT THIS TIME.


          FOR POINT    4 SECOND STRUCTURE
 DISTANCE A - B      1.699228
 HEAT              -23.999097
 GRADIENT NORM       0.754455
 DIRECTION COSINE   -0.194932
 GEO-OK CHARGE=0 SINGLET  PM7 PRECISE
 Cyklohexan, lodicka, TS

  C(          1          X    )   0.00000000 +0    0.0000000 +0    0.0000000 +0
  C(          2          X    )   1.53755294 +1    0.0000000 +0    0.0000000 +0     1     0     0
  C(          3          X    )   1.53843240 +1  112.0004323 +1    0.0000000 +0     2     1     0
  C(          4          X    )   1.53225676 +1  111.1979246 +1  -28.2197651 +1     3     2     1
  C(          5          X    )   1.53747993 +1  110.9147504 +1   64.1188894 +1     4     3     2
  C(          6          X    )   1.53224195 +1  110.9426490 +1  -33.2180524 +1     1     2     3
  H(          7          X    )   1.10455837 +1  110.0002802 +1 -155.4914300 +1     1     2     3
  H(          8          X    )   1.10604032 +1  109.9413457 +1   88.1477662 +1     1     2     3
  H(          9          X    )   1.10504746 +1  109.4497173 +1 -122.2763408 +1     2     1     3
  H(         10          X    )   1.10537952 +1  109.8830490 +1  121.8147188 +1     2     1     3
  H(         11          X    )   1.10460727 +1  109.9845182 +1 -150.5999373 +1     3     2     1
  H(         12          X    )   1.10632944 +1  109.8716306 +1   93.0860690 +1     3     2     1
  H(         13          X    )   1.10601944 +1  109.4277344 +1  -57.5492565 +1     6     1     2
  H(         14          X    )   1.10461118 +1  110.2132941 +1 -173.7249553 +1     6     1     2
  H(         15          X    )   1.10512010 +1  109.4454367 +1 -155.5893573 +1     5     4     3
  H(         16          X    )   1.10526060 +1  109.9155401 +1   88.4769079 +1     5     4     3
  H(         17          X    )   1.10451173 +1  110.2771497 +1 -173.7488296 +1     4     3     2
  H(         18          X    )   1.10618531 +1  109.5870330 +1  -57.4758246 +1     4     3     2
 
 TIME=     0.58
  REACTANTS AND PRODUCTS SWAPPED AROUND
 *+*+*+*+*+*+*+*+*+*+*+*+*+*+*+*+*+*+*+*+*+*+*+*+*+*+*+*+*+*+*+*+*+*+*+*+*+*+*+*+
            BAR SHORTENED BY       1.000 PERCENT
 GRADIENT CRITERION IN FLEPO =     0.200


          FOR POINT    5 FIRST  STRUCTURE
 DISTANCE A - B      1.682235
 HEAT              -23.467278
 GRADIENT NORM       0.423878
 DIRECTION COSINE   -0.011387
 GEO-OK CHARGE=0 SINGLET  PM7 PRECISE
 Cyklohexan, lodicka, TS

  C(          1          X    )   0.00000000 +0    0.0000000 +0    0.0000000 +0
  C(          2          X    )   1.53315536 +1    0.0000000 +0    0.0000000 +0     1     0     0
  C(          3          X    )   1.54037632 +1  112.2200301 +1    0.0000000 +0     2     1     0
  C(          4          X    )   1.53391918 +1  112.4005412 +1    2.8180035 +1     3     2     1
  C(          5          X    )   1.53360873 +1  111.1001963 +1   51.5232726 +1     4     3     2
  C(          6          X    )   1.53346137 +1  110.7407899 +1  -55.1797214 +1     1     2     3
  H(          7          X    )   1.10552863 +1  110.0120899 +1 -176.9871932 +1     1     2     3
  H(          8          X    )   1.10610848 +1  110.0410359 +1   66.7398649 +1     1     2     3
  H(          9          X    )   1.10477616 +1  109.6315624 +1 -122.5738567 +1     2     1     3
  H(         10          X    )   1.10605743 +1  109.3274952 +1  121.7910909 +1     2     1     3
  H(         11          X    )   1.10509069 +1  109.9855524 +1 -119.4162536 +1     3     2     1
  H(         12          X    )   1.10583265 +1  109.5301943 +1  124.6466453 +1     3     2     1
  H(         13          X    )   1.10616856 +1  109.3781488 +1  -69.1687704 +1     6     1     2
  H(         14          X    )   1.10482872 +1  109.5908991 +1  175.2342220 +1     6     1     2
  H(         15          X    )   1.10502387 +1  109.5248974 +1 -176.5659170 +1     5     4     3
  H(         16          X    )   1.10580737 +1  109.3517985 +1   67.8261454 +1     5     4     3
  H(         17          X    )   1.10549654 +1  109.8938253 +1  173.3748504 +1     4     3     2
  H(         18          X    )   1.10597555 +1  109.9772816 +1  -70.4424093 +1     4     3     2
 
 TIME=     0.36
  REACTANTS AND PRODUCTS SWAPPED AROUND
 *+*+*+*+*+*+*+*+*+*+*+*+*+*+*+*+*+*+*+*+*+*+*+*+*+*+*+*+*+*+*+*+*+*+*+*+*+*+*+*+
            BAR SHORTENED BY       1.000 PERCENT
 GRADIENT CRITERION IN FLEPO =     0.200
           THERE HAVE BEEN 3 ATTEMPTS TO REDUCE THE GRADIENT.
           DURING THESE ATTEMPTS THE ENERGY DROPPED BY LESS THAN 0.0 KCAL/MOLE
           FURTHER CALCULATION IS NOT JUSTIFIED AT THIS TIME.


          FOR POINT    6 SECOND STRUCTURE
 DISTANCE A - B      1.665413
 HEAT              -23.995956
 GRADIENT NORM       0.846106
 DIRECTION COSINE    0.136886
 GEO-OK CHARGE=0 SINGLET  PM7 PRECISE
 Cyklohexan, lodicka, TS

  C(          1          X    )   0.00000000 +0    0.0000000 +0    0.0000000 +0
  C(          2          X    )   1.53762143 +1    0.0000000 +0    0.0000000 +0     1     0     0
  C(          3          X    )   1.53875627 +1  112.0071707 +1    0.0000000 +0     2     1     0
  C(          4          X    )   1.53279872 +1  111.2090305 +1  -27.8674813 +1     3     2     1
  C(          5          X    )   1.53762396 +1  110.9760939 +1   64.0191946 +1     4     3     2
  C(          6          X    )   1.53271038 +1  110.9708123 +1  -33.5129210 +1     1     2     3
  H(          7          X    )   1.10464668 +1  109.9835854 +1 -155.7706149 +1     1     2     3
  H(          8          X    )   1.10626751 +1  109.9578419 +1   87.9024380 +1     1     2     3
  H(          9          X    )   1.10523373 +1  109.4150782 +1 -122.2270582 +1     2     1     3
  H(         10          X    )   1.10492701 +1  109.8962675 +1  121.8343591 +1     2     1     3
  H(         11          X    )   1.10431547 +1  109.9847566 +1 -150.2433570 +1     3     2     1
  H(         12          X    )   1.10633248 +1  109.8654778 +1   93.4122574 +1     3     2     1
  H(         13          X    )   1.10592983 +1  109.4079718 +1  -57.5865261 +1     6     1     2
  H(         14          X    )   1.10462769 +1  110.1869190 +1 -173.7657518 +1     6     1     2
  H(         15          X    )   1.10463481 +1  109.4571786 +1 -155.8302075 +1     5     4     3
  H(         16          X    )   1.10508262 +1  109.8805764 +1   88.2138197 +1     5     4     3
  H(         17          X    )   1.10474685 +1  110.2434900 +1 -173.8587788 +1     4     3     2
  H(         18          X    )   1.10621978 +1  109.5663554 +1  -57.5777128 +1     4     3     2
 
 *+*+*+*+*+*+*+*+*+*+*+*+*+*+*+*+*+*+*+*+*+*+*+*+*+*+*+*+*+*+*+*+*+*+*+*+*+*+*+*+
            BAR SHORTENED BY       1.000 PERCENT
 GRADIENT CRITERION IN FLEPO =     0.200
           THERE HAVE BEEN 3 ATTEMPTS TO REDUCE THE GRADIENT.
           DURING THESE ATTEMPTS THE ENERGY DROPPED BY LESS THAN 0.0 KCAL/MOLE
           FURTHER CALCULATION IS NOT JUSTIFIED AT THIS TIME.


          FOR POINT    7 SECOND STRUCTURE
 DISTANCE A - B      1.648759
 HEAT              -23.992828
 GRADIENT NORM       0.511022
 DIRECTION COSINE    0.431883
 GEO-OK CHARGE=0 SINGLET  PM7 PRECISE
 Cyklohexan, lodicka, TS

  C(          1          X    )   0.00000000 +0    0.0000000 +0    0.0000000 +0
  C(          2          X    )   1.53764592 +1    0.0000000 +0    0.0000000 +0     1     0     0
  C(          3          X    )   1.53875871 +1  112.0101407 +1    0.0000000 +0     2     1     0
  C(          4          X    )   1.53259464 +1  111.2179869 +1  -27.5905507 +1     3     2     1
  C(          5          X    )   1.53751017 +1  110.9776090 +1   63.9901546 +1     4     3     2
  C(          6          X    )   1.53271190 +1  110.9771940 +1  -33.7504465 +1     1     2     3
  H(          7          X    )   1.10451133 +1  109.9777800 +1 -155.9975336 +1     1     2     3
  H(          8          X    )   1.10617397 +1  109.9398723 +1   87.6231929 +1     1     2     3
  H(          9          X    )   1.10488321 +1  109.4203781 +1 -122.2638758 +1     2     1     3
  H(         10          X    )   1.10532614 +1  109.8866464 +1  121.8186406 +1     2     1     3
  H(         11          X    )   1.10456544 +1  109.9678270 +1 -149.9403026 +1     3     2     1
  H(         12          X    )   1.10614078 +1  109.8794760 +1   93.7174811 +1     3     2     1
  H(         13          X    )   1.10613318 +1  109.4283447 +1  -57.6599578 +1     6     1     2
  H(         14          X    )   1.10453562 +1  110.1787304 +1 -173.8290348 +1     6     1     2
  H(         15          X    )   1.10494452 +1  109.4332783 +1 -156.0943631 +1     5     4     3
  H(         16          X    )   1.10515585 +1  109.8942718 +1   87.9692463 +1     5     4     3
  H(         17          X    )   1.10479877 +1  110.2455141 +1 -173.9017335 +1     4     3     2
  H(         18          X    )   1.10609367 +1  109.5856293 +1  -57.6455680 +1     4     3     2
 
 *+*+*+*+*+*+*+*+*+*+*+*+*+*+*+*+*+*+*+*+*+*+*+*+*+*+*+*+*+*+*+*+*+*+*+*+*+*+*+*+
            BAR SHORTENED BY       1.000 PERCENT
 GRADIENT CRITERION IN FLEPO =     0.200
           THERE HAVE BEEN 3 ATTEMPTS TO REDUCE THE GRADIENT.
           DURING THESE ATTEMPTS THE ENERGY DROPPED BY LESS THAN 0.0 KCAL/MOLE
           FURTHER CALCULATION IS NOT JUSTIFIED AT THIS TIME.


          FOR POINT    8 SECOND STRUCTURE
 DISTANCE A - B      1.632271
 HEAT              -23.988996
 GRADIENT NORM       0.799553
 DIRECTION COSINE    0.382162
 GEO-OK CHARGE=0 SINGLET  PM7 PRECISE
 Cyklohexan, lodicka, TS

  C(          1          X    )   0.00000000 +0    0.0000000 +0    0.0000000 +0
  C(          2          X    )   1.53755624 +1    0.0000000 +0    0.0000000 +0     1     0     0
  C(          3          X    )   1.53873957 +1  112.0143312 +1    0.0000000 +0     2     1     0
  C(          4          X    )   1.53266557 +1  111.2529819 +1  -27.2828785 +1     3     2     1
  C(          5          X    )   1.53771084 +1  110.9661148 +1   63.9109908 +1     4     3     2
  C(          6          X    )   1.53266954 +1  110.9823979 +1  -34.0131267 +1     1     2     3
  H(          7          X    )   1.10458531 +1  109.9771963 +1 -156.2706258 +1     1     2     3
  H(          8          X    )   1.10643898 +1  109.9452188 +1   87.3827768 +1     1     2     3
  H(          9          X    )   1.10490770 +1  109.4039051 +1 -122.2476647 +1     2     1     3
  H(         10          X    )   1.10477411 +1  109.9089075 +1  121.7870664 +1     2     1     3
  H(         11          X    )   1.10454637 +1  109.9596140 +1 -149.6276027 +1     3     2     1
  H(         12          X    )   1.10607735 +1  109.8732565 +1   94.0379268 +1     3     2     1
  H(         13          X    )   1.10610795 +1  109.4146413 +1  -57.6985902 +1     6     1     2
  H(         14          X    )   1.10444005 +1  110.1746725 +1 -173.8669144 +1     6     1     2
  H(         15          X    )   1.10513257 +1  109.4096399 +1 -156.3244069 +1     5     4     3
  H(         16          X    )   1.10488457 +1  109.8858645 +1   87.7624674 +1     5     4     3
  H(         17          X    )   1.10477893 +1  110.2468717 +1 -173.9809107 +1     4     3     2
  H(         18          X    )   1.10618008 +1  109.5752011 +1  -57.7011851 +1     4     3     2
 
 TIME=     0.88
  REACTANTS AND PRODUCTS SWAPPED AROUND
 *+*+*+*+*+*+*+*+*+*+*+*+*+*+*+*+*+*+*+*+*+*+*+*+*+*+*+*+*+*+*+*+*+*+*+*+*+*+*+*+
            BAR SHORTENED BY       0.000 PERCENT
 GRADIENT CRITERION IN FLEPO =     0.200


          FOR POINT    9 FIRST  STRUCTURE
 DISTANCE A - B      1.632271
 HEAT              -23.467507
 GRADIENT NORM       0.433055
 DIRECTION COSINE    0.027933
 GEO-OK CHARGE=0 SINGLET  PM7 PRECISE
 Cyklohexan, lodicka, TS

  C(          1          X    )   0.00000000 +0    0.0000000 +0    0.0000000 +0
  C(          2          X    )   1.53336798 +1    0.0000000 +0    0.0000000 +0     1     0     0
  C(          3          X    )   1.54024066 +1  112.2206132 +1    0.0000000 +0     2     1     0
  C(          4          X    )   1.53390998 +1  112.3949416 +1    2.7992646 +1     3     2     1
  C(          5          X    )   1.53345058 +1  111.1126028 +1   51.5418637 +1     4     3     2
  C(          6          X    )   1.53382881 +1  110.7570918 +1  -55.1520911 +1     1     2     3
  H(          7          X    )   1.10532436 +1  110.0294085 +1 -176.9674646 +1     1     2     3
  H(          8          X    )   1.10596340 +1  110.0300383 +1   66.7517828 +1     1     2     3
  H(          9          X    )   1.10495472 +1  109.6499153 +1 -122.5859186 +1     2     1     3
  H(         10          X    )   1.10597831 +1  109.3065881 +1  121.7852862 +1     2     1     3
  H(         11          X    )   1.10511097 +1  109.9786707 +1 -119.4540652 +1     3     2     1
  H(         12          X    )   1.10586363 +1  109.5326830 +1  124.6105836 +1     3     2     1
  H(         13          X    )   1.10588884 +1  109.3544171 +1  -69.1830042 +1     6     1     2
  H(         14          X    )   1.10481283 +1  109.5770739 +1  175.1950394 +1     6     1     2
  H(         15          X    )   1.10519466 +1  109.5233538 +1 -176.5993694 +1     5     4     3
  H(         16          X    )   1.10592386 +1  109.3442925 +1   67.8202244 +1     5     4     3
  H(         17          X    )   1.10591834 +1  109.8774307 +1  173.4111242 +1     4     3     2
  H(         18          X    )   1.10623406 +1  109.9752429 +1  -70.4475330 +1     4     3     2
 
 TIME=     0.18
  REACTANTS AND PRODUCTS SWAPPED AROUND
 *+*+*+*+*+*+*+*+*+*+*+*+*+*+*+*+*+*+*+*+*+*+*+*+*+*+*+*+*+*+*+*+*+*+*+*+*+*+*+*+
            BAR SHORTENED BY       1.000 PERCENT
 GRADIENT CRITERION IN FLEPO =     0.200


          FOR POINT   10 SECOND STRUCTURE
 DISTANCE A - B      1.615949
 HEAT              -23.985095
 GRADIENT NORM       0.464372
 DIRECTION COSINE    0.186827
 GEO-OK CHARGE=0 SINGLET  PM7 PRECISE
 Cyklohexan, lodicka, TS

  C(          1          X    )   0.00000000 +0    0.0000000 +0    0.0000000 +0
  C(          2          X    )   1.53739281 +1    0.0000000 +0    0.0000000 +0     1     0     0
  C(          3          X    )   1.53855915 +1  112.0466610 +1    0.0000000 +0     2     1     0
  C(          4          X    )   1.53267233 +1  111.2726142 +1  -26.9965550 +1     3     2     1
  C(          5          X    )   1.53748771 +1  110.9703864 +1   63.8288032 +1     4     3     2
  C(          6          X    )   1.53244373 +1  110.9828503 +1  -34.2424536 +1     1     2     3
  H(          7          X    )   1.10467616 +1  109.9814337 +1 -156.4991249 +1     1     2     3
  H(          8          X    )   1.10610898 +1  109.9418918 +1   87.1663317 +1     1     2     3
  H(          9          X    )   1.10492875 +1  109.4072650 +1 -122.2804980 +1     2     1     3
  H(         10          X    )   1.10520417 +1  109.8675392 +1  121.8309884 +1     2     1     3
  H(         11          X    )   1.10458618 +1  109.9678390 +1 -149.3394694 +1     3     2     1
  H(         12          X    )   1.10607311 +1  109.8735643 +1   94.3378430 +1     3     2     1
  H(         13          X    )   1.10598564 +1  109.4176243 +1  -57.8033151 +1     6     1     2
  H(         14          X    )   1.10457319 +1  110.1687383 +1 -173.9668670 +1     6     1     2
  H(         15          X    )   1.10498653 +1  109.4183941 +1 -156.5584232 +1     5     4     3
  H(         16          X    )   1.10505142 +1  109.8861644 +1   87.5275944 +1     5     4     3
  H(         17          X    )   1.10467210 +1  110.2397433 +1 -174.0836146 +1     4     3     2
  H(         18          X    )   1.10628460 +1  109.5833407 +1  -57.7885934 +1     4     3     2
 
 *+*+*+*+*+*+*+*+*+*+*+*+*+*+*+*+*+*+*+*+*+*+*+*+*+*+*+*+*+*+*+*+*+*+*+*+*+*+*+*+
            BAR SHORTENED BY       1.000 PERCENT
 GRADIENT CRITERION IN FLEPO =     0.200
           THERE HAVE BEEN 3 ATTEMPTS TO REDUCE THE GRADIENT.
           DURING THESE ATTEMPTS THE ENERGY DROPPED BY LESS THAN 0.0 KCAL/MOLE
           FURTHER CALCULATION IS NOT JUSTIFIED AT THIS TIME.


          FOR POINT   11 SECOND STRUCTURE
 DISTANCE A - B      1.599789
 HEAT              -23.980775
 GRADIENT NORM       0.773546
 DIRECTION COSINE    0.556174
 GEO-OK CHARGE=0 SINGLET  PM7 PRECISE
 Cyklohexan, lodicka, TS

  C(          1          X    )   0.00000000 +0    0.0000000 +0    0.0000000 +0
  C(          2          X    )   1.53735522 +1    0.0000000 +0    0.0000000 +0     1     0     0
  C(          3          X    )   1.53836992 +1  112.0540515 +1    0.0000000 +0     2     1     0
  C(          4          X    )   1.53255740 +1  111.3050334 +1  -26.6863372 +1     3     2     1
  C(          5          X    )   1.53738653 +1  110.9809542 +1   63.7435323 +1     4     3     2
  C(          6          X    )   1.53235581 +1  110.9885343 +1  -34.4926664 +1     1     2     3
  H(          7          X    )   1.10474623 +1  109.9745443 +1 -156.7405243 +1     1     2     3
  H(          8          X    )   1.10636740 +1  109.9596185 +1   86.9411698 +1     1     2     3
  H(          9          X    )   1.10530985 +1  109.3913766 +1 -122.2833730 +1     2     1     3
  H(         10          X    )   1.10501355 +1  109.8667027 +1  121.8370905 +1     2     1     3
  H(         11          X    )   1.10463972 +1  109.9635298 +1 -149.0402031 +1     3     2     1
  H(         12          X    )   1.10602347 +1  109.8666536 +1   94.6477317 +1     3     2     1
  H(         13          X    )   1.10606250 +1  109.3972596 +1  -57.8496355 +1     6     1     2
  H(         14          X    )   1.10451311 +1  110.1674505 +1 -174.0068145 +1     6     1     2
  H(         15          X    )   1.10514728 +1  109.4160937 +1 -156.7994900 +1     5     4     3
  H(         16          X    )   1.10498685 +1  109.8741385 +1   87.3049033 +1     5     4     3
  H(         17          X    )   1.10494413 +1  110.2551704 +1 -174.1214491 +1     4     3     2
  H(         18          X    )   1.10636141 +1  109.5804257 +1  -57.8833153 +1     4     3     2
 
 *+*+*+*+*+*+*+*+*+*+*+*+*+*+*+*+*+*+*+*+*+*+*+*+*+*+*+*+*+*+*+*+*+*+*+*+*+*+*+*+
            BAR SHORTENED BY       1.000 PERCENT
 GRADIENT CRITERION IN FLEPO =     0.200
           THERE HAVE BEEN 3 ATTEMPTS TO REDUCE THE GRADIENT.
           DURING THESE ATTEMPTS THE ENERGY DROPPED BY LESS THAN 0.0 KCAL/MOLE
           FURTHER CALCULATION IS NOT JUSTIFIED AT THIS TIME.


          FOR POINT   12 SECOND STRUCTURE
 DISTANCE A - B      1.583791
 HEAT              -23.976780
 GRADIENT NORM       0.730922
 DIRECTION COSINE    0.207165
 GEO-OK CHARGE=0 SINGLET  PM7 PRECISE
 Cyklohexan, lodicka, TS

  C(          1          X    )   0.00000000 +0    0.0000000 +0    0.0000000 +0
  C(          2          X    )   1.53737893 +1    0.0000000 +0    0.0000000 +0     1     0     0
  C(          3          X    )   1.53862678 +1  112.0419711 +1    0.0000000 +0     2     1     0
  C(          4          X    )   1.53274256 +1  111.3135164 +1  -26.3987756 +1     3     2     1
  C(          5          X    )   1.53748779 +1  110.9827595 +1   63.7152467 +1     4     3     2
  C(          6          X    )   1.53250032 +1  110.9942588 +1  -34.7622513 +1     1     2     3
  H(          7          X    )   1.10503248 +1  110.0055114 +1 -156.9862836 +1     1     2     3
  H(          8          X    )   1.10573077 +1  109.9702269 +1   86.6881993 +1     1     2     3
  H(          9          X    )   1.10485826 +1  109.4011933 +1 -122.2889581 +1     2     1     3
  H(         10          X    )   1.10521471 +1  109.8666860 +1  121.8229261 +1     2     1     3
  H(         11          X    )   1.10459356 +1  109.9597367 +1 -148.7345641 +1     3     2     1
  H(         12          X    )   1.10604019 +1  109.8721241 +1   94.9317715 +1     3     2     1
  H(         13          X    )   1.10629409 +1  109.4208104 +1  -57.8878953 +1     6     1     2
  H(         14          X    )   1.10448717 +1  110.1670848 +1 -174.0202279 +1     6     1     2
  H(         15          X    )   1.10490797 +1  109.4079644 +1 -157.0479354 +1     5     4     3
  H(         16          X    )   1.10512143 +1  109.8679544 +1   87.0505590 +1     5     4     3
  H(         17          X    )   1.10458546 +1  110.2258408 +1 -174.2011738 +1     4     3     2
  H(         18          X    )   1.10622615 +1  109.5920013 +1  -57.9112820 +1     4     3     2
 
 TIME=     0.85
  REACTANTS AND PRODUCTS SWAPPED AROUND
 *+*+*+*+*+*+*+*+*+*+*+*+*+*+*+*+*+*+*+*+*+*+*+*+*+*+*+*+*+*+*+*+*+*+*+*+*+*+*+*+
            BAR SHORTENED BY       0.000 PERCENT
 GRADIENT CRITERION IN FLEPO =     0.200


          FOR POINT   13 FIRST  STRUCTURE
 DISTANCE A - B      1.583791
 HEAT              -23.467640
 GRADIENT NORM       0.409083
 DIRECTION COSINE    0.101753
 GEO-OK CHARGE=0 SINGLET  PM7 PRECISE
 Cyklohexan, lodicka, TS

  C(          1          X    )   0.00000000 +0    0.0000000 +0    0.0000000 +0
  C(          2          X    )   1.53330518 +1    0.0000000 +0    0.0000000 +0     1     0     0
  C(          3          X    )   1.54034596 +1  112.2193055 +1    0.0000000 +0     2     1     0
  C(          4          X    )   1.53392977 +1  112.3952253 +1    2.7860756 +1     3     2     1
  C(          5          X    )   1.53357191 +1  111.1074260 +1   51.5504600 +1     4     3     2
  C(          6          X    )   1.53369874 +1  110.7631598 +1  -55.1440997 +1     1     2     3
  H(          7          X    )   1.10550281 +1  110.0179275 +1 -176.9527721 +1     1     2     3
  H(          8          X    )   1.10605904 +1  110.0385103 +1   66.7797625 +1     1     2     3
  H(          9          X    )   1.10481603 +1  109.6503745 +1 -122.5757694 +1     2     1     3
  H(         10          X    )   1.10598950 +1  109.3177653 +1  121.7946560 +1     2     1     3
  H(         11          X    )   1.10514360 +1  110.0000921 +1 -119.4727452 +1     3     2     1
  H(         12          X    )   1.10584509 +1  109.5307277 +1  124.6062585 +1     3     2     1
  H(         13          X    )   1.10608373 +1  109.3788303 +1  -69.2029581 +1     6     1     2
  H(         14          X    )   1.10525026 +1  109.5667712 +1  175.1529296 +1     6     1     2
  H(         15          X    )   1.10506126 +1  109.5260192 +1 -176.5980101 +1     5     4     3
  H(         16          X    )   1.10579865 +1  109.3456548 +1   67.8078615 +1     5     4     3
  H(         17          X    )   1.10566629 +1  109.8814933 +1  173.4095387 +1     4     3     2
  H(         18          X    )   1.10609248 +1  109.9781902 +1  -70.4248591 +1     4     3     2
 
 TIME=     0.14
  REACTANTS AND PRODUCTS SWAPPED AROUND
 *+*+*+*+*+*+*+*+*+*+*+*+*+*+*+*+*+*+*+*+*+*+*+*+*+*+*+*+*+*+*+*+*+*+*+*+*+*+*+*+
            BAR SHORTENED BY       1.000 PERCENT
 GRADIENT CRITERION IN FLEPO =     0.200


          FOR POINT   14 SECOND STRUCTURE
 DISTANCE A - B      1.567953
 HEAT              -23.972172
 GRADIENT NORM       0.591677
 DIRECTION COSINE    0.059747
 GEO-OK CHARGE=0 SINGLET  PM7 PRECISE
 Cyklohexan, lodicka, TS

  C(          1          X    )   0.00000000 +0    0.0000000 +0    0.0000000 +0
  C(          2          X    )   1.53714185 +1    0.0000000 +0    0.0000000 +0     1     0     0
  C(          3          X    )   1.53878276 +1  112.0715405 +1    0.0000000 +0     2     1     0
  C(          4          X    )   1.53243453 +1  111.3356255 +1  -26.1317293 +1     3     2     1
  C(          5          X    )   1.53718582 +1  110.9853307 +1   63.6298133 +1     4     3     2
  C(          6          X    )   1.53240426 +1  110.9859144 +1  -34.9669854 +1     1     2     3
  H(          7          X    )   1.10470853 +1  109.9672860 +1 -157.2042131 +1     1     2     3
  H(          8          X    )   1.10607269 +1  109.9227539 +1   86.4409536 +1     1     2     3
  H(          9          X    )   1.10477575 +1  109.4169298 +1 -122.3150575 +1     2     1     3
  H(         10          X    )   1.10538130 +1  109.8500497 +1  121.8229617 +1     2     1     3
  H(         11          X    )   1.10463121 +1  109.9446273 +1 -148.4739088 +1     3     2     1
  H(         12          X    )   1.10608117 +1  109.8592226 +1   95.2212038 +1     3     2     1
  H(         13          X    )   1.10604315 +1  109.4060681 +1  -57.9901839 +1     6     1     2
  H(         14          X    )   1.10473174 +1  110.1381225 +1 -174.1408308 +1     6     1     2
  H(         15          X    )   1.10495530 +1  109.4230821 +1 -157.2782621 +1     5     4     3
  H(         16          X    )   1.10523045 +1  109.8736954 +1   86.8286137 +1     5     4     3
  H(         17          X    )   1.10472604 +1  110.2430231 +1 -174.2843482 +1     4     3     2
  H(         18          X    )   1.10643354 +1  109.6026107 +1  -57.9973611 +1     4     3     2
 
 *+*+*+*+*+*+*+*+*+*+*+*+*+*+*+*+*+*+*+*+*+*+*+*+*+*+*+*+*+*+*+*+*+*+*+*+*+*+*+*+
            BAR SHORTENED BY       1.000 PERCENT
 GRADIENT CRITERION IN FLEPO =     0.200
           THERE HAVE BEEN 3 ATTEMPTS TO REDUCE THE GRADIENT.
           DURING THESE ATTEMPTS THE ENERGY DROPPED BY LESS THAN 0.0 KCAL/MOLE
           FURTHER CALCULATION IS NOT JUSTIFIED AT THIS TIME.


          FOR POINT   15 SECOND STRUCTURE
 DISTANCE A - B      1.552274
 HEAT              -23.967638
 GRADIENT NORM       0.867579
 DIRECTION COSINE    0.209858
 GEO-OK CHARGE=0 SINGLET  PM7 PRECISE
 Cyklohexan, lodicka, TS

  C(          1          X    )   0.00000000 +0    0.0000000 +0    0.0000000 +0
  C(          2          X    )   1.53752270 +1    0.0000000 +0    0.0000000 +0     1     0     0
  C(          3          X    )   1.53889918 +1  112.0536940 +1    0.0000000 +0     2     1     0
  C(          4          X    )   1.53281142 +1  111.3523168 +1  -25.8068353 +1     3     2     1
  C(          5          X    )   1.53748533 +1  110.9962403 +1   63.5854290 +1     4     3     2
  C(          6          X    )   1.53296184 +1  110.9731016 +1  -35.2746344 +1     1     2     3
  H(          7          X    )   1.10501770 +1  109.9443938 +1 -157.4604524 +1     1     2     3
  H(          8          X    )   1.10620021 +1  109.9743504 +1   86.2050806 +1     1     2     3
  H(          9          X    )   1.10506949 +1  109.3738990 +1 -122.2861324 +1     2     1     3
  H(         10          X    )   1.10519354 +1  109.8335812 +1  121.8134015 +1     2     1     3
  H(         11          X    )   1.10448088 +1  109.9556539 +1 -148.1525605 +1     3     2     1
  H(         12          X    )   1.10594307 +1  109.8614486 +1   95.5173002 +1     3     2     1
  H(         13          X    )   1.10602577 +1  109.3977847 +1  -57.9809539 +1     6     1     2
  H(         14          X    )   1.10469308 +1  110.1283695 +1 -174.0802923 +1     6     1     2
  H(         15          X    )   1.10509696 +1  109.4168807 +1 -157.5299438 +1     5     4     3
  H(         16          X    )   1.10531286 +1  109.8371613 +1   86.5612474 +1     5     4     3
  H(         17          X    )   1.10472624 +1  110.2331465 +1 -174.3297027 +1     4     3     2
  H(         18          X    )   1.10624199 +1  109.6255745 +1  -58.0583092 +1     4     3     2
 
 *+*+*+*+*+*+*+*+*+*+*+*+*+*+*+*+*+*+*+*+*+*+*+*+*+*+*+*+*+*+*+*+*+*+*+*+*+*+*+*+
            BAR SHORTENED BY       1.000 PERCENT
 GRADIENT CRITERION IN FLEPO =     0.200


          FOR POINT   16 SECOND STRUCTURE
 DISTANCE A - B      1.536751
 HEAT              -23.962985
 GRADIENT NORM       0.575672
 DIRECTION COSINE    0.176937
 GEO-OK CHARGE=0 SINGLET  PM7 PRECISE
 Cyklohexan, lodicka, TS

  C(          1          X    )   0.00000000 +0    0.0000000 +0    0.0000000 +0
  C(          2          X    )   1.53697989 +1    0.0000000 +0    0.0000000 +0     1     0     0
  C(          3          X    )   1.53876854 +1  112.0733596 +1    0.0000000 +0     2     1     0
  C(          4          X    )   1.53259539 +1  111.3823584 +1  -25.5574169 +1     3     2     1
  C(          5          X    )   1.53706429 +1  110.9874440 +1   63.5048537 +1     4     3     2
  C(          6          X    )   1.53235911 +1  110.9903400 +1  -35.4578580 +1     1     2     3
  H(          7          X    )   1.10473830 +1  109.9561371 +1 -157.6893434 +1     1     2     3
  H(          8          X    )   1.10611476 +1  109.9350859 +1   85.9717146 +1     1     2     3
  H(          9          X    )   1.10470725 +1  109.4177397 +1 -122.3214530 +1     2     1     3
  H(         10          X    )   1.10524200 +1  109.8507214 +1  121.7878386 +1     2     1     3
  H(         11          X    )   1.10467981 +1  109.9449300 +1 -147.9052963 +1     3     2     1
  H(         12          X    )   1.10604998 +1  109.8571957 +1   95.8003212 +1     3     2     1
  H(         13          X    )   1.10606180 +1  109.3942771 +1  -58.0638251 +1     6     1     2
  H(         14          X    )   1.10469951 +1  110.1344315 +1 -174.1911823 +1     6     1     2
  H(         15          X    )   1.10485476 +1  109.4253489 +1 -157.7506393 +1     5     4     3
  H(         16          X    )   1.10525572 +1  109.8609148 +1   86.3645219 +1     5     4     3
  H(         17          X    )   1.10480148 +1  110.2223993 +1 -174.4295727 +1     4     3     2
  H(         18          X    )   1.10607993 +1  109.6133482 +1  -58.1439424 +1     4     3     2
 
 TIME=     0.71
  REACTANTS AND PRODUCTS SWAPPED AROUND
 *+*+*+*+*+*+*+*+*+*+*+*+*+*+*+*+*+*+*+*+*+*+*+*+*+*+*+*+*+*+*+*+*+*+*+*+*+*+*+*+
            BAR SHORTENED BY       0.000 PERCENT
 GRADIENT CRITERION IN FLEPO =     0.200


          FOR POINT   17 FIRST  STRUCTURE
 DISTANCE A - B      1.536751
 HEAT              -23.467677
 GRADIENT NORM       0.458118
 DIRECTION COSINE    0.082841
 GEO-OK CHARGE=0 SINGLET  PM7 PRECISE
 Cyklohexan, lodicka, TS

  C(          1          X    )   0.00000000 +0    0.0000000 +0    0.0000000 +0
  C(          2          X    )   1.53329978 +1    0.0000000 +0    0.0000000 +0     1     0     0
  C(          3          X    )   1.54034467 +1  112.2203969 +1    0.0000000 +0     2     1     0
  C(          4          X    )   1.53392716 +1  112.3943216 +1    2.7842638 +1     3     2     1
  C(          5          X    )   1.53356595 +1  111.1078325 +1   51.5516257 +1     4     3     2
  C(          6          X    )   1.53369818 +1  110.7644166 +1  -55.1414099 +1     1     2     3
  H(          7          X    )   1.10549418 +1  110.0183659 +1 -176.9519331 +1     1     2     3
  H(          8          X    )   1.10602432 +1  110.0370867 +1   66.7809281 +1     1     2     3
  H(          9          X    )   1.10484613 +1  109.6498565 +1 -122.5742017 +1     2     1     3
  H(         10          X    )   1.10599488 +1  109.3201439 +1  121.7956866 +1     2     1     3
  H(         11          X    )   1.10513778 +1  109.9991749 +1 -119.4742487 +1     3     2     1
  H(         12          X    )   1.10584139 +1  109.5308562 +1  124.6031401 +1     3     2     1
  H(         13          X    )   1.10602394 +1  109.3777858 +1  -69.2056661 +1     6     1     2
  H(         14          X    )   1.10520799 +1  109.5683885 +1  175.1527407 +1     6     1     2
  H(         15          X    )   1.10500358 +1  109.5314157 +1 -176.6015176 +1     5     4     3
  H(         16          X    )   1.10581023 +1  109.3455293 +1   67.8071374 +1     5     4     3
  H(         17          X    )   1.10561473 +1  109.8822778 +1  173.4120868 +1     4     3     2
  H(         18          X    )   1.10640776 +1  109.9647562 +1  -70.3966978 +1     4     3     2
 
 TIME=     0.15
  REACTANTS AND PRODUCTS SWAPPED AROUND
 *+*+*+*+*+*+*+*+*+*+*+*+*+*+*+*+*+*+*+*+*+*+*+*+*+*+*+*+*+*+*+*+*+*+*+*+*+*+*+*+
            BAR SHORTENED BY       1.000 PERCENT
 GRADIENT CRITERION IN FLEPO =     0.200
           THERE HAVE BEEN 3 ATTEMPTS TO REDUCE THE GRADIENT.
           DURING THESE ATTEMPTS THE ENERGY DROPPED BY LESS THAN 0.0 KCAL/MOLE
           FURTHER CALCULATION IS NOT JUSTIFIED AT THIS TIME.


          FOR POINT   18 SECOND STRUCTURE
 DISTANCE A - B      1.521383
 HEAT              -23.958364
 GRADIENT NORM       0.739158
 DIRECTION COSINE   -0.039860
 GEO-OK CHARGE=0 SINGLET  PM7 PRECISE
 Cyklohexan, lodicka, TS

  C(          1          X    )   0.00000000 +0    0.0000000 +0    0.0000000 +0
  C(          2          X    )   1.53710277 +1    0.0000000 +0    0.0000000 +0     1     0     0
  C(          3          X    )   1.53908756 +1  112.0619923 +1    0.0000000 +0     2     1     0
  C(          4          X    )   1.53257675 +1  111.3837201 +1  -25.2627303 +1     3     2     1
  C(          5          X    )   1.53717880 +1  111.0071069 +1   63.4533529 +1     4     3     2
  C(          6          X    )   1.53260158 +1  110.9881867 +1  -35.7201245 +1     1     2     3
  H(          7          X    )   1.10461091 +1  109.9541292 +1 -157.9546489 +1     1     2     3
  H(          8          X    )   1.10623405 +1  109.9292206 +1   85.7078221 +1     1     2     3
  H(          9          X    )   1.10495589 +1  109.4024583 +1 -122.3177279 +1     2     1     3
  H(         10          X    )   1.10527087 +1  109.8162387 +1  121.7982278 +1     2     1     3
  H(         11          X    )   1.10450251 +1  109.9407308 +1 -147.6097255 +1     3     2     1
  H(         12          X    )   1.10591694 +1  109.8484090 +1   96.0694767 +1     3     2     1
  H(         13          X    )   1.10605098 +1  109.3726141 +1  -58.1136263 +1     6     1     2
  H(         14          X    )   1.10476597 +1  110.1137556 +1 -174.1898322 +1     6     1     2
  H(         15          X    )   1.10501917 +1  109.4281083 +1 -157.9949987 +1     5     4     3
  H(         16          X    )   1.10526268 +1  109.8250001 +1   86.1052654 +1     5     4     3
  H(         17          X    )   1.10492553 +1  110.2327402 +1 -174.4559800 +1     4     3     2
  H(         18          X    )   1.10634523 +1  109.6164799 +1  -58.1935614 +1     4     3     2
 
 TIME=     0.30
  REACTANTS AND PRODUCTS SWAPPED AROUND
 *+*+*+*+*+*+*+*+*+*+*+*+*+*+*+*+*+*+*+*+*+*+*+*+*+*+*+*+*+*+*+*+*+*+*+*+*+*+*+*+
            BAR SHORTENED BY       1.000 PERCENT
 GRADIENT CRITERION IN FLEPO =     0.200


          FOR POINT   19 FIRST  STRUCTURE
 DISTANCE A - B      1.506170
 HEAT              -23.466332
 GRADIENT NORM       0.467582
 DIRECTION COSINE    0.059819
 GEO-OK CHARGE=0 SINGLET  PM7 PRECISE
 Cyklohexan, lodicka, TS

  C(          1          X    )   0.00000000 +0    0.0000000 +0    0.0000000 +0
  C(          2          X    )   1.53318923 +1    0.0000000 +0    0.0000000 +0     1     0     0
  C(          3          X    )   1.54034263 +1  112.2549894 +1    0.0000000 +0     2     1     0
  C(          4          X    )   1.53369590 +1  112.3932181 +1    2.4751456 +1     3     2     1
  C(          5          X    )   1.53341410 +1  111.1089092 +1   51.7135910 +1     4     3     2
  C(          6          X    )   1.53344803 +1  110.7775699 +1  -54.9194152 +1     1     2     3
  H(          7          X    )   1.10536592 +1  109.9795347 +1 -176.7520317 +1     1     2     3
  H(          8          X    )   1.10628668 +1  110.0205166 +1   66.9883048 +1     1     2     3
  H(          9          X    )   1.10492042 +1  109.6353041 +1 -122.5721064 +1     2     1     3
  H(         10          X    )   1.10603544 +1  109.3274032 +1  121.7928888 +1     2     1     3
  H(         11          X    )   1.10514474 +1  109.9819242 +1 -119.7809496 +1     3     2     1
  H(         12          X    )   1.10590753 +1  109.5269634 +1  124.3051519 +1     3     2     1
  H(         13          X    )   1.10607679 +1  109.3796679 +1  -69.1221459 +1     6     1     2
  H(         14          X    )   1.10497893 +1  109.5844636 +1  175.2667441 +1     6     1     2
  H(         15          X    )   1.10512414 +1  109.5317557 +1 -176.4574785 +1     5     4     3
  H(         16          X    )   1.10590283 +1  109.3602628 +1   67.9516281 +1     5     4     3
  H(         17          X    )   1.10556419 +1  109.8932529 +1  173.5637087 +1     4     3     2
  H(         18          X    )   1.10601195 +1  109.9771173 +1  -70.2560961 +1     4     3     2
 
 TIME=     0.22
  REACTANTS AND PRODUCTS SWAPPED AROUND
 *+*+*+*+*+*+*+*+*+*+*+*+*+*+*+*+*+*+*+*+*+*+*+*+*+*+*+*+*+*+*+*+*+*+*+*+*+*+*+*+
            BAR SHORTENED BY       1.000 PERCENT
 GRADIENT CRITERION IN FLEPO =     0.200
           THERE HAVE BEEN 3 ATTEMPTS TO REDUCE THE GRADIENT.
           DURING THESE ATTEMPTS THE ENERGY DROPPED BY LESS THAN 0.0 KCAL/MOLE
           FURTHER CALCULATION IS NOT JUSTIFIED AT THIS TIME.


          FOR POINT   20 SECOND STRUCTURE
 DISTANCE A - B      1.491108
 HEAT              -23.953751
 GRADIENT NORM       0.722498
 DIRECTION COSINE    0.285177
 GEO-OK CHARGE=0 SINGLET  PM7 PRECISE
 Cyklohexan, lodicka, TS

  C(          1          X    )   0.00000000 +0    0.0000000 +0    0.0000000 +0
  C(          2          X    )   1.53711797 +1    0.0000000 +0    0.0000000 +0     1     0     0
  C(          3          X    )   1.53893764 +1  112.0710017 +1    0.0000000 +0     2     1     0
  C(          4          X    )   1.53259490 +1  111.3944548 +1  -24.9744250 +1     3     2     1
  C(          5          X    )   1.53710981 +1  110.9854346 +1   63.4183258 +1     4     3     2
  C(          6          X    )   1.53268326 +1  110.9559550 +1  -35.9964718 +1     1     2     3
  H(          7          X    )   1.10491158 +1  109.9440257 +1 -158.1659998 +1     1     2     3
  H(          8          X    )   1.10598126 +1  109.9847570 +1   85.4834839 +1     1     2     3
  H(          9          X    )   1.10491088 +1  109.3946602 +1 -122.3160153 +1     2     1     3
  H(         10          X    )   1.10521226 +1  109.8505440 +1  121.8201487 +1     2     1     3
  H(         11          X    )   1.10462902 +1  109.9434039 +1 -147.3190267 +1     3     2     1
  H(         12          X    )   1.10600530 +1  109.8432193 +1   96.3810006 +1     3     2     1
  H(         13          X    )   1.10584660 +1  109.4011923 +1  -58.1125972 +1     6     1     2
  H(         14          X    )   1.10461919 +1  110.1187213 +1 -174.2172187 +1     6     1     2
  H(         15          X    )   1.10477625 +1  109.4048115 +1 -158.2553406 +1     5     4     3
  H(         16          X    )   1.10577200 +1  109.8375883 +1   85.8948896 +1     5     4     3
  H(         17          X    )   1.10478951 +1  110.2322921 +1 -174.5017131 +1     4     3     2
  H(         18          X    )   1.10613186 +1  109.6386477 +1  -58.2162879 +1     4     3     2
 
 *+*+*+*+*+*+*+*+*+*+*+*+*+*+*+*+*+*+*+*+*+*+*+*+*+*+*+*+*+*+*+*+*+*+*+*+*+*+*+*+
            BAR SHORTENED BY       1.000 PERCENT
 GRADIENT CRITERION IN FLEPO =     0.200


          FOR POINT   21 SECOND STRUCTURE
 DISTANCE A - B      1.476197
 HEAT              -23.948882
 GRADIENT NORM       0.564572
 DIRECTION COSINE    0.452280
 GEO-OK CHARGE=0 SINGLET  PM7 PRECISE
 Cyklohexan, lodicka, TS

  C(          1          X    )   0.00000000 +0    0.0000000 +0    0.0000000 +0
  C(          2          X    )   1.53696813 +1    0.0000000 +0    0.0000000 +0     1     0     0
  C(          3          X    )   1.53891433 +1  112.0773738 +1    0.0000000 +0     2     1     0
  C(          4          X    )   1.53254150 +1  111.4168143 +1  -24.7400806 +1     3     2     1
  C(          5          X    )   1.53713475 +1  110.9687826 +1   63.3791611 +1     4     3     2
  C(          6          X    )   1.53253970 +1  110.9706501 +1  -36.1865240 +1     1     2     3
  H(          7          X    )   1.10496261 +1  110.0015939 +1 -158.4086489 +1     1     2     3
  H(          8          X    )   1.10609317 +1  109.9567949 +1   85.2708137 +1     1     2     3
  H(          9          X    )   1.10474476 +1  109.4138585 +1 -122.3407231 +1     2     1     3
  H(         10          X    )   1.10525908 +1  109.8201348 +1  121.8055744 +1     2     1     3
  H(         11          X    )   1.10456307 +1  109.9438914 +1 -147.0845316 +1     3     2     1
  H(         12          X    )   1.10597975 +1  109.8400521 +1   96.6123277 +1     3     2     1
  H(         13          X    )   1.10599703 +1  109.3719039 +1  -58.1994804 +1     6     1     2
  H(         14          X    )   1.10459417 +1  110.1142510 +1 -174.2932588 +1     6     1     2
  H(         15          X    )   1.10494164 +1  109.4127297 +1 -158.4663771 +1     5     4     3
  H(         16          X    )   1.10525323 +1  109.8264899 +1   85.6672538 +1     5     4     3
  H(         17          X    )   1.10486724 +1  110.2315721 +1 -174.5545804 +1     4     3     2
  H(         18          X    )   1.10607098 +1  109.6295391 +1  -58.2548964 +1     4     3     2
 
 *+*+*+*+*+*+*+*+*+*+*+*+*+*+*+*+*+*+*+*+*+*+*+*+*+*+*+*+*+*+*+*+*+*+*+*+*+*+*+*+
            BAR SHORTENED BY       1.000 PERCENT
 GRADIENT CRITERION IN FLEPO =     0.200


          FOR POINT   22 SECOND STRUCTURE
 DISTANCE A - B      1.461435
 HEAT              -23.943897
 GRADIENT NORM       0.701409
 DIRECTION COSINE    0.634831
 GEO-OK CHARGE=0 SINGLET  PM7 PRECISE
 Cyklohexan, lodicka, TS

  C(          1          X    )   0.00000000 +0    0.0000000 +0    0.0000000 +0
  C(          2          X    )   1.53706293 +1    0.0000000 +0    0.0000000 +0     1     0     0
  C(          3          X    )   1.53906840 +1  112.0733637 +1    0.0000000 +0     2     1     0
  C(          4          X    )   1.53266545 +1  111.4189738 +1  -24.4602750 +1     3     2     1
  C(          5          X    )   1.53703806 +1  110.9779905 +1   63.3382165 +1     4     3     2
  C(          6          X    )   1.53261652 +1  110.9585369 +1  -36.4431490 +1     1     2     3
  H(          7          X    )   1.10470619 +1  109.9530170 +1 -158.6489114 +1     1     2     3
  H(          8          X    )   1.10612466 +1  109.9572546 +1   84.9955245 +1     1     2     3
  H(          9          X    )   1.10488017 +1  109.3981482 +1 -122.3240973 +1     2     1     3
  H(         10          X    )   1.10502169 +1  109.8152093 +1  121.7985262 +1     2     1     3
  H(         11          X    )   1.10454470 +1  109.9419144 +1 -146.8077757 +1     3     2     1
  H(         12          X    )   1.10601622 +1  109.8374172 +1   96.8912423 +1     3     2     1
  H(         13          X    )   1.10594757 +1  109.3737384 +1  -58.2173562 +1     6     1     2
  H(         14          X    )   1.10457105 +1  110.1108814 +1 -174.3278107 +1     6     1     2
  H(         15          X    )   1.10472567 +1  109.4205986 +1 -158.7172995 +1     5     4     3
  H(         16          X    )   1.10520392 +1  109.8212126 +1   85.4076975 +1     5     4     3
  H(         17          X    )   1.10483859 +1  110.2075971 +1 -174.6310604 +1     4     3     2
  H(         18          X    )   1.10602293 +1  109.6472400 +1  -58.3464493 +1     4     3     2
 
 TIME=     0.88
  REACTANTS AND PRODUCTS SWAPPED AROUND
 *+*+*+*+*+*+*+*+*+*+*+*+*+*+*+*+*+*+*+*+*+*+*+*+*+*+*+*+*+*+*+*+*+*+*+*+*+*+*+*+
            BAR SHORTENED BY       0.000 PERCENT
 GRADIENT CRITERION IN FLEPO =     0.200


          FOR POINT   23 FIRST  STRUCTURE
 DISTANCE A - B      1.461435
 HEAT              -23.466427
 GRADIENT NORM       0.410490
 DIRECTION COSINE    0.196169
 GEO-OK CHARGE=0 SINGLET  PM7 PRECISE
 Cyklohexan, lodicka, TS

  C(          1          X    )   0.00000000 +0    0.0000000 +0    0.0000000 +0
  C(          2          X    )   1.53328390 +1    0.0000000 +0    0.0000000 +0     1     0     0
  C(          3          X    )   1.54031458 +1  112.2498830 +1    0.0000000 +0     2     1     0
  C(          4          X    )   1.53373456 +1  112.3961527 +1    2.4737206 +1     3     2     1
  C(          5          X    )   1.53344430 +1  111.1089234 +1   51.7163513 +1     4     3     2
  C(          6          X    )   1.53350250 +1  110.7804456 +1  -54.9190306 +1     1     2     3
  H(          7          X    )   1.10540048 +1  109.9839709 +1 -176.7454733 +1     1     2     3
  H(          8          X    )   1.10622115 +1  110.0232694 +1   66.9915221 +1     1     2     3
  H(          9          X    )   1.10484851 +1  109.6321452 +1 -122.5722109 +1     2     1     3
  H(         10          X    )   1.10603137 +1  109.3215194 +1  121.7977971 +1     2     1     3
  H(         11          X    )   1.10513585 +1  109.9804809 +1 -119.7823234 +1     3     2     1
  H(         12          X    )   1.10581001 +1  109.5277090 +1  124.2462648 +1     3     2     1
  H(         13          X    )   1.10596029 +1  109.3908072 +1  -69.1335343 +1     6     1     2
  H(         14          X    )   1.10495218 +1  109.5842447 +1  175.2662259 +1     6     1     2
  H(         15          X    )   1.10514775 +1  109.5285225 +1 -176.4802834 +1     5     4     3
  H(         16          X    )   1.10589019 +1  109.3552243 +1   67.9470955 +1     5     4     3
  H(         17          X    )   1.10560154 +1  109.8931434 +1  173.5709433 +1     4     3     2
  H(         18          X    )   1.10613423 +1  109.9741819 +1  -70.2498291 +1     4     3     2
 
 TIME=     0.16
  REACTANTS AND PRODUCTS SWAPPED AROUND
 *+*+*+*+*+*+*+*+*+*+*+*+*+*+*+*+*+*+*+*+*+*+*+*+*+*+*+*+*+*+*+*+*+*+*+*+*+*+*+*+
            BAR SHORTENED BY       1.000 PERCENT
 GRADIENT CRITERION IN FLEPO =     0.200


          FOR POINT   24 SECOND STRUCTURE
 DISTANCE A - B      1.446821
 HEAT              -23.938287
 GRADIENT NORM       0.631731
 DIRECTION COSINE    0.056201
 GEO-OK CHARGE=0 SINGLET  PM7 PRECISE
 Cyklohexan, lodicka, TS

  C(          1          X    )   0.00000000 +0    0.0000000 +0    0.0000000 +0
  C(          2          X    )   1.53675141 +1    0.0000000 +0    0.0000000 +0     1     0     0
  C(          3          X    )   1.53863445 +1  112.1092016 +1    0.0000000 +0     2     1     0
  C(          4          X    )   1.53258735 +1  111.4436568 +1  -24.2034905 +1     3     2     1
  C(          5          X    )   1.53687365 +1  110.9461540 +1   63.2467753 +1     4     3     2
  C(          6          X    )   1.53235202 +1  110.9422529 +1  -36.6487352 +1     1     2     3
  H(          7          X    )   1.10482566 +1  109.9504444 +1 -158.8121357 +1     1     2     3
  H(          8          X    )   1.10615277 +1  109.9532811 +1   84.8258119 +1     1     2     3
  H(          9          X    )   1.10491109 +1  109.3989790 +1 -122.3553697 +1     2     1     3
  H(         10          X    )   1.10541366 +1  109.8198704 +1  121.8231658 +1     2     1     3
  H(         11          X    )   1.10473975 +1  109.9398041 +1 -146.5423401 +1     3     2     1
  H(         12          X    )   1.10601080 +1  109.8427703 +1   97.1861558 +1     3     2     1
  H(         13          X    )   1.10604206 +1  109.3849676 +1  -58.2852205 +1     6     1     2
  H(         14          X    )   1.10483440 +1  110.1022472 +1 -174.4118399 +1     6     1     2
  H(         15          X    )   1.10487736 +1  109.4091978 +1 -158.9291007 +1     5     4     3
  H(         16          X    )   1.10538164 +1  109.8313608 +1   85.2413227 +1     5     4     3
  H(         17          X    )   1.10483169 +1  110.2004528 +1 -174.7358782 +1     4     3     2
  H(         18          X    )   1.10599496 +1  109.6528317 +1  -58.4331447 +1     4     3     2
 
 *+*+*+*+*+*+*+*+*+*+*+*+*+*+*+*+*+*+*+*+*+*+*+*+*+*+*+*+*+*+*+*+*+*+*+*+*+*+*+*+
            BAR SHORTENED BY       1.000 PERCENT
 GRADIENT CRITERION IN FLEPO =     0.200
           THERE HAVE BEEN 3 ATTEMPTS TO REDUCE THE GRADIENT.
           DURING THESE ATTEMPTS THE ENERGY DROPPED BY LESS THAN 0.0 KCAL/MOLE
           FURTHER CALCULATION IS NOT JUSTIFIED AT THIS TIME.


          FOR POINT   25 SECOND STRUCTURE
 DISTANCE A - B      1.432352
 HEAT              -23.933194
 GRADIENT NORM       0.819903
 DIRECTION COSINE    0.366693
 GEO-OK CHARGE=0 SINGLET  PM7 PRECISE
 Cyklohexan, lodicka, TS

  C(          1          X    )   0.00000000 +0    0.0000000 +0    0.0000000 +0
  C(          2          X    )   1.53682367 +1    0.0000000 +0    0.0000000 +0     1     0     0
  C(          3          X    )   1.53884182 +1  112.0783244 +1    0.0000000 +0     2     1     0
  C(          4          X    )   1.53278193 +1  111.4668370 +1  -23.9363133 +1     3     2     1
  C(          5          X    )   1.53709292 +1  110.9696672 +1   63.1927899 +1     4     3     2
  C(          6          X    )   1.53235210 +1  110.9749841 +1  -36.8810795 +1     1     2     3
  H(          7          X    )   1.10484836 +1  109.9899317 +1 -159.1134031 +1     1     2     3
  H(          8          X    )   1.10644148 +1  109.9579313 +1   84.5948588 +1     1     2     3
  H(          9          X    )   1.10503090 +1  109.3924220 +1 -122.3444385 +1     2     1     3
  H(         10          X    )   1.10501954 +1  109.7853429 +1  121.8082027 +1     2     1     3
  H(         11          X    )   1.10465403 +1  109.9364468 +1 -146.2793355 +1     3     2     1
  H(         12          X    )   1.10593025 +1  109.8363019 +1   97.4173882 +1     3     2     1
  H(         13          X    )   1.10595757 +1  109.3459328 +1  -58.3467002 +1     6     1     2
  H(         14          X    )   1.10465119 +1  110.1112094 +1 -174.4051490 +1     6     1     2
  H(         15          X    )   1.10476161 +1  109.4075791 +1 -159.1551704 +1     5     4     3
  H(         16          X    )   1.10551654 +1  109.8212131 +1   85.0059402 +1     5     4     3
  H(         17          X    )   1.10487538 +1  110.2134994 +1 -174.7745313 +1     4     3     2
  H(         18          X    )   1.10603554 +1  109.6504670 +1  -58.4765141 +1     4     3     2
 
 *+*+*+*+*+*+*+*+*+*+*+*+*+*+*+*+*+*+*+*+*+*+*+*+*+*+*+*+*+*+*+*+*+*+*+*+*+*+*+*+
            BAR SHORTENED BY       1.000 PERCENT
 GRADIENT CRITERION IN FLEPO =     0.200


          FOR POINT   26 SECOND STRUCTURE
 DISTANCE A - B      1.418029
 HEAT              -23.927832
 GRADIENT NORM       0.570143
 DIRECTION COSINE    0.239664
 GEO-OK CHARGE=0 SINGLET  PM7 PRECISE
 Cyklohexan, lodicka, TS

  C(          1          X    )   0.00000000 +0    0.0000000 +0    0.0000000 +0
  C(          2          X    )   1.53673221 +1    0.0000000 +0    0.0000000 +0     1     0     0
  C(          3          X    )   1.53904732 +1  112.1102142 +1    0.0000000 +0     2     1     0
  C(          4          X    )   1.53246955 +1  111.4723679 +1  -23.6796642 +1     3     2     1
  C(          5          X    )   1.53676525 +1  110.9726073 +1   63.1325726 +1     4     3     2
  C(          6          X    )   1.53244792 +1  110.9483727 +1  -37.0685707 +1     1     2     3
  H(          7          X    )   1.10479988 +1  109.9609114 +1 -159.2713783 +1     1     2     3
  H(          8          X    )   1.10597474 +1  109.9606964 +1   84.4119455 +1     1     2     3
  H(          9          X    )   1.10490799 +1  109.4116679 +1 -122.3713166 +1     2     1     3
  H(         10          X    )   1.10540972 +1  109.7986871 +1  121.8052731 +1     2     1     3
  H(         11          X    )   1.10469953 +1  109.9345554 +1 -146.0303977 +1     3     2     1
  H(         12          X    )   1.10603824 +1  109.8303559 +1   97.6909844 +1     3     2     1
  H(         13          X    )   1.10605816 +1  109.3653207 +1  -58.4217614 +1     6     1     2
  H(         14          X    )   1.10473769 +1  110.0872611 +1 -174.5028866 +1     6     1     2
  H(         15          X    )   1.10506070 +1  109.4076995 +1 -159.3457456 +1     5     4     3
  H(         16          X    )   1.10520028 +1  109.8134384 +1   84.8042892 +1     5     4     3
  H(         17          X    )   1.10476227 +1  110.2131920 +1 -174.8319025 +1     4     3     2
  H(         18          X    )   1.10621256 +1  109.6489449 +1  -58.5492277 +1     4     3     2
 
 TIME=     0.74
  REACTANTS AND PRODUCTS SWAPPED AROUND
 *+*+*+*+*+*+*+*+*+*+*+*+*+*+*+*+*+*+*+*+*+*+*+*+*+*+*+*+*+*+*+*+*+*+*+*+*+*+*+*+
            BAR SHORTENED BY       0.000 PERCENT
 GRADIENT CRITERION IN FLEPO =     0.200


          FOR POINT   27 FIRST  STRUCTURE
 DISTANCE A - B      1.418029
 HEAT              -23.466488
 GRADIENT NORM       0.430373
 DIRECTION COSINE    0.242267
 GEO-OK CHARGE=0 SINGLET  PM7 PRECISE
 Cyklohexan, lodicka, TS

  C(          1          X    )   0.00000000 +0    0.0000000 +0    0.0000000 +0
  C(          2          X    )   1.53332198 +1    0.0000000 +0    0.0000000 +0     1     0     0
  C(          3          X    )   1.54030574 +1  112.2464293 +1    0.0000000 +0     2     1     0
  C(          4          X    )   1.53375623 +1  112.3943807 +1    2.4700528 +1     3     2     1
  C(          5          X    )   1.53345414 +1  111.1083656 +1   51.7270678 +1     4     3     2
  C(          6          X    )   1.53354164 +1  110.7828799 +1  -54.9179971 +1     1     2     3
  H(          7          X    )   1.10542799 +1  109.9875729 +1 -176.7404082 +1     1     2     3
  H(          8          X    )   1.10617513 +1  110.0254444 +1   66.9944089 +1     1     2     3
  H(          9          X    )   1.10482470 +1  109.6308780 +1 -122.5723415 +1     2     1     3
  H(         10          X    )   1.10602534 +1  109.3128917 +1  121.8131577 +1     2     1     3
  H(         11          X    )   1.10508800 +1  109.9794550 +1 -119.7884441 +1     3     2     1
  H(         12          X    )   1.10583590 +1  109.5277068 +1  124.2485599 +1     3     2     1
  H(         13          X    )   1.10597279 +1  109.3871197 +1  -69.1335383 +1     6     1     2
  H(         14          X    )   1.10494722 +1  109.5830847 +1  175.2647293 +1     6     1     2
  H(         15          X    )   1.10514565 +1  109.5256362 +1 -176.4834456 +1     5     4     3
  H(         16          X    )   1.10622016 +1  109.3452620 +1   67.9445965 +1     5     4     3
  H(         17          X    )   1.10572901 +1  109.8871226 +1  173.5778064 +1     4     3     2
  H(         18          X    )   1.10608208 +1  109.9776464 +1  -70.2515166 +1     4     3     2
 
 TIME=     0.16
  REACTANTS AND PRODUCTS SWAPPED AROUND
 *+*+*+*+*+*+*+*+*+*+*+*+*+*+*+*+*+*+*+*+*+*+*+*+*+*+*+*+*+*+*+*+*+*+*+*+*+*+*+*+
            BAR SHORTENED BY       1.000 PERCENT
 GRADIENT CRITERION IN FLEPO =     0.200


          FOR POINT   28 SECOND STRUCTURE
 DISTANCE A - B      1.403849
 HEAT              -23.922085
 GRADIENT NORM       0.600726
 DIRECTION COSINE    0.052783
 GEO-OK CHARGE=0 SINGLET  PM7 PRECISE
 Cyklohexan, lodicka, TS

  C(          1          X    )   0.00000000 +0    0.0000000 +0    0.0000000 +0
  C(          2          X    )   1.53671923 +1    0.0000000 +0    0.0000000 +0     1     0     0
  C(          3          X    )   1.53908498 +1  112.1216657 +1    0.0000000 +0     2     1     0
  C(          4          X    )   1.53241427 +1  111.4950174 +1  -23.4137451 +1     3     2     1
  C(          5          X    )   1.53674068 +1  110.9690872 +1   63.0399897 +1     4     3     2
  C(          6          X    )   1.53241339 +1  110.9368366 +1  -37.2883750 +1     1     2     3
  H(          7          X    )   1.10476184 +1  109.9427012 +1 -159.4560141 +1     1     2     3
  H(          8          X    )   1.10594471 +1  109.9855483 +1   84.2095950 +1     1     2     3
  H(          9          X    )   1.10488340 +1  109.3996302 +1 -122.3571319 +1     2     1     3
  H(         10          X    )   1.10526383 +1  109.8033796 +1  121.8032830 +1     2     1     3
  H(         11          X    )   1.10470238 +1  109.9273455 +1 -145.7632619 +1     3     2     1
  H(         12          X    )   1.10599486 +1  109.8210401 +1   97.9734325 +1     3     2     1
  H(         13          X    )   1.10595708 +1  109.3677728 +1  -58.4854589 +1     6     1     2
  H(         14          X    )   1.10467454 +1  110.0782329 +1 -174.5794533 +1     6     1     2
  H(         15          X    )   1.10490146 +1  109.4190498 +1 -159.5545306 +1     5     4     3
  H(         16          X    )   1.10533486 +1  109.8064238 +1   84.6113375 +1     5     4     3
  H(         17          X    )   1.10494769 +1  110.2121989 +1 -174.9194736 +1     4     3     2
  H(         18          X    )   1.10633287 +1  109.6609364 +1  -58.6392229 +1     4     3     2
 
 *+*+*+*+*+*+*+*+*+*+*+*+*+*+*+*+*+*+*+*+*+*+*+*+*+*+*+*+*+*+*+*+*+*+*+*+*+*+*+*+
            BAR SHORTENED BY       1.000 PERCENT
 GRADIENT CRITERION IN FLEPO =     0.200
           THERE HAVE BEEN 3 ATTEMPTS TO REDUCE THE GRADIENT.
           DURING THESE ATTEMPTS THE ENERGY DROPPED BY LESS THAN 0.0 KCAL/MOLE
           FURTHER CALCULATION IS NOT JUSTIFIED AT THIS TIME.


          FOR POINT   29 SECOND STRUCTURE
 DISTANCE A - B      1.389810
 HEAT              -23.916827
 GRADIENT NORM       0.901104
 DIRECTION COSINE    0.326343
 GEO-OK CHARGE=0 SINGLET  PM7 PRECISE
 Cyklohexan, lodicka, TS

  C(          1          X    )   0.00000000 +0    0.0000000 +0    0.0000000 +0
  C(          2          X    )   1.53691716 +1    0.0000000 +0    0.0000000 +0     1     0     0
  C(          3          X    )   1.53951423 +1  112.1044300 +1    0.0000000 +0     2     1     0
  C(          4          X    )   1.53284371 +1  111.4771676 +1  -23.1776634 +1     3     2     1
  C(          5          X    )   1.53712422 +1  110.9646449 +1   63.0443938 +1     4     3     2
  C(          6          X    )   1.53268527 +1  110.9504391 +1  -37.5069921 +1     1     2     3
  H(          7          X    )   1.10479273 +1  109.9508145 +1 -159.6806793 +1     1     2     3
  H(          8          X    )   1.10624538 +1  109.9674900 +1   83.9913201 +1     1     2     3
  H(          9          X    )   1.10486620 +1  109.4104351 +1 -122.3785366 +1     2     1     3
  H(         10          X    )   1.10548339 +1  109.7737739 +1  121.7856736 +1     2     1     3
  H(         11          X    )   1.10449143 +1  109.9338399 +1 -145.5154593 +1     3     2     1
  H(         12          X    )   1.10578370 +1  109.8218735 +1   98.1915620 +1     3     2     1
  H(         13          X    )   1.10612324 +1  109.3459954 +1  -58.5204741 +1     6     1     2
  H(         14          X    )   1.10461899 +1  110.0850276 +1 -174.5582591 +1     6     1     2
  H(         15          X    )   1.10500193 +1  109.3872612 +1 -159.8343110 +1     5     4     3
  H(         16          X    )   1.10543853 +1  109.7839475 +1   84.3527400 +1     5     4     3
  H(         17          X    )   1.10490933 +1  110.1701111 +1 -174.9459143 +1     4     3     2
  H(         18          X    )   1.10595736 +1  109.6721899 +1  -58.6743683 +1     4     3     2
 
 *+*+*+*+*+*+*+*+*+*+*+*+*+*+*+*+*+*+*+*+*+*+*+*+*+*+*+*+*+*+*+*+*+*+*+*+*+*+*+*+
            BAR SHORTENED BY       1.000 PERCENT
 GRADIENT CRITERION IN FLEPO =     0.200


          FOR POINT   30 SECOND STRUCTURE
 DISTANCE A - B      1.375912
 HEAT              -23.911438
 GRADIENT NORM       0.598950
 DIRECTION COSINE    0.586327
 GEO-OK CHARGE=0 SINGLET  PM7 PRECISE
 Cyklohexan, lodicka, TS

  C(          1          X    )   0.00000000 +0    0.0000000 +0    0.0000000 +0
  C(          2          X    )   1.53668150 +1    0.0000000 +0    0.0000000 +0     1     0     0
  C(          3          X    )   1.53906094 +1  112.1171586 +1    0.0000000 +0     2     1     0
  C(          4          X    )   1.53250393 +1  111.5035166 +1  -22.9199118 +1     3     2     1
  C(          5          X    )   1.53670069 +1  110.9713139 +1   62.9667819 +1     4     3     2
  C(          6          X    )   1.53249758 +1  110.9413239 +1  -37.7159884 +1     1     2     3
  H(          7          X    )   1.10472023 +1  109.9529909 +1 -159.8976890 +1     1     2     3
  H(          8          X    )   1.10625046 +1  109.9689548 +1   83.7928513 +1     1     2     3
  H(          9          X    )   1.10473558 +1  109.4121737 +1 -122.3860899 +1     2     1     3
  H(         10          X    )   1.10541203 +1  109.7804103 +1  121.7993227 +1     2     1     3
  H(         11          X    )   1.10464838 +1  109.9353006 +1 -145.2714175 +1     3     2     1
  H(         12          X    )   1.10593311 +1  109.8228782 +1   98.4540183 +1     3     2     1
  H(         13          X    )   1.10599238 +1  109.3608386 +1  -58.5816998 +1     6     1     2
  H(         14          X    )   1.10462601 +1  110.0772752 +1 -174.6447989 +1     6     1     2
  H(         15          X    )   1.10483944 +1  109.4105601 +1 -160.0088207 +1     5     4     3
  H(         16          X    )   1.10529605 +1  109.7974787 +1   84.1623417 +1     5     4     3
  H(         17          X    )   1.10512052 +1  110.1961085 +1 -175.0215757 +1     4     3     2
  H(         18          X    )   1.10599405 +1  109.6817532 +1  -58.7442617 +1     4     3     2
 
 TIME=     0.84
  REACTANTS AND PRODUCTS SWAPPED AROUND
 *+*+*+*+*+*+*+*+*+*+*+*+*+*+*+*+*+*+*+*+*+*+*+*+*+*+*+*+*+*+*+*+*+*+*+*+*+*+*+*+
            BAR SHORTENED BY       0.000 PERCENT
 GRADIENT CRITERION IN FLEPO =     0.200


          FOR POINT   31 FIRST  STRUCTURE
 DISTANCE A - B      1.375912
 HEAT              -23.466653
 GRADIENT NORM       0.370227
 DIRECTION COSINE    0.221086
 GEO-OK CHARGE=0 SINGLET  PM7 PRECISE
 Cyklohexan, lodicka, TS

  C(          1          X    )   0.00000000 +0    0.0000000 +0    0.0000000 +0
  C(          2          X    )   1.53334876 +1    0.0000000 +0    0.0000000 +0     1     0     0
  C(          3          X    )   1.54027990 +1  112.2402155 +1    0.0000000 +0     2     1     0
  C(          4          X    )   1.53390530 +1  112.3980965 +1    2.4555779 +1     3     2     1
  C(          5          X    )   1.53351516 +1  111.0991220 +1   51.7472832 +1     4     3     2
  C(          6          X    )   1.53367033 +1  110.7887377 +1  -54.9070160 +1     1     2     3
  H(          7          X    )   1.10549637 +1  110.0017760 +1 -176.7185518 +1     1     2     3
  H(          8          X    )   1.10605421 +1  110.0329691 +1   67.0076882 +1     1     2     3
  H(          9          X    )   1.10519117 +1  109.6332139 +1 -122.5593440 +1     2     1     3
  H(         10          X    )   1.10600143 +1  109.3185613 +1  121.8024511 +1     2     1     3
  H(         11          X    )   1.10512560 +1  109.9815424 +1 -119.7986228 +1     3     2     1
  H(         12          X    )   1.10584080 +1  109.5344744 +1  124.2531578 +1     3     2     1
  H(         13          X    )   1.10607770 +1  109.3593537 +1  -69.1589758 +1     6     1     2
  H(         14          X    )   1.10489860 +1  109.5795404 +1  175.2704319 +1     6     1     2
  H(         15          X    )   1.10504033 +1  109.5241364 +1 -176.4801620 +1     5     4     3
  H(         16          X    )   1.10587979 +1  109.3405188 +1   67.9240958 +1     5     4     3
  H(         17          X    )   1.10577029 +1  109.9022465 +1  173.6334276 +1     4     3     2
  H(         18          X    )   1.10612177 +1  109.9777989 +1  -70.2368893 +1     4     3     2
 
 TIME=     0.14
  REACTANTS AND PRODUCTS SWAPPED AROUND
 *+*+*+*+*+*+*+*+*+*+*+*+*+*+*+*+*+*+*+*+*+*+*+*+*+*+*+*+*+*+*+*+*+*+*+*+*+*+*+*+
            BAR SHORTENED BY       1.000 PERCENT
 GRADIENT CRITERION IN FLEPO =     0.200


          FOR POINT   32 SECOND STRUCTURE
 DISTANCE A - B      1.362153
 HEAT              -23.905377
 GRADIENT NORM       0.694006
 DIRECTION COSINE    0.214794
 GEO-OK CHARGE=0 SINGLET  PM7 PRECISE
 Cyklohexan, lodicka, TS

  C(          1          X    )   0.00000000 +0    0.0000000 +0    0.0000000 +0
  C(          2          X    )   1.53643684 +1    0.0000000 +0    0.0000000 +0     1     0     0
  C(          3          X    )   1.53890237 +1  112.1364002 +1    0.0000000 +0     2     1     0
  C(          4          X    )   1.53257966 +1  111.5363714 +1  -22.6686951 +1     3     2     1
  C(          5          X    )   1.53654858 +1  110.9459723 +1   62.8702815 +1     4     3     2
  C(          6          X    )   1.53234042 +1  110.9296680 +1  -37.9146502 +1     1     2     3
  H(          7          X    )   1.10490827 +1  109.9540536 +1 -160.0615237 +1     1     2     3
  H(          8          X    )   1.10622728 +1  109.9711301 +1   83.5966645 +1     1     2     3
[...]
  H(         13          X    )   1.10593578 +1  109.3010019 +1  -64.7666287 +1     6     1     2
  H(         14          X    )   1.10494291 +1  109.6878369 +1  179.5516990 +1     6     1     2
  H(         15          X    )   1.10493100 +1  109.4736201 +1 -171.7315298 +1     5     4     3
  H(         16          X    )   1.10584362 +1  109.4576890 +1   72.6741137 +1     5     4     3
  H(         17          X    )   1.10554349 +1  110.0224393 +1  178.8576043 +1     4     3     2
  H(         18          X    )   1.10613562 +1  109.9369482 +1  -64.9258867 +1     4     3     2
 
 TIME=     0.07
  REACTANTS AND PRODUCTS SWAPPED AROUND
 *+*+*+*+*+*+*+*+*+*+*+*+*+*+*+*+*+*+*+*+*+*+*+*+*+*+*+*+*+*+*+*+*+*+*+*+*+*+*+*+
            BAR SHORTENED BY       1.000 PERCENT
 GRADIENT CRITERION IN FLEPO =     0.200


          FOR POINT  303 FIRST  STRUCTURE
 DISTANCE A - B      0.105003
 HEAT              -23.494923
 GRADIENT NORM       0.271537
 DIRECTION COSINE   -0.800557
 GEO-OK CHARGE=0 SINGLET  PM7 PRECISE
 Cyklohexan, lodicka, TS

  C(          1          X    )   0.00000000 +0    0.0000000 +0    0.0000000 +0
  C(          2          X    )   1.53409935 +1    0.0000000 +0    0.0000000 +0     1     0     0
  C(          3          X    )   1.54024928 +1  112.3514359 +1    0.0000000 +0     2     1     0
  C(          4          X    )   1.53313704 +1  112.2321307 +1   -5.0643145 +1     3     2     1
  C(          5          X    )   1.53411117 +1  110.9570228 +1   56.0470147 +1     4     3     2
  C(          6          X    )   1.53314952 +1  110.9430827 +1  -50.3988578 +1     1     2     3
  H(          7          X    )   1.10545947 +1  109.9171485 +1 -172.2770487 +1     1     2     3
  H(          8          X    )   1.10608176 +1  110.0198944 +1   71.5027448 +1     1     2     3
  H(          9          X    )   1.10498725 +1  109.4956672 +1 -122.5649672 +1     2     1     3
  H(         10          X    )   1.10588847 +1  109.4258696 +1  121.8500297 +1     2     1     3
  H(         11          X    )   1.10499229 +1  109.9571711 +1 -127.3943346 +1     3     2     1
  H(         12          X    )   1.10594543 +1  109.6186270 +1  116.6057301 +1     3     2     1
  H(         13          X    )   1.10602750 +1  109.3156503 +1  -65.7338480 +1     6     1     2
  H(         14          X    )   1.10514255 +1  109.6522561 +1  178.6186011 +1     6     1     2
  H(         15          X    )   1.10500404 +1  109.4878152 +1 -172.9084830 +1     5     4     3
  H(         16          X    )   1.10588196 +1  109.4215341 +1   71.5002750 +1     5     4     3
  H(         17          X    )   1.10550887 +1  109.9883913 +1  177.8742962 +1     4     3     2
  H(         18          X    )   1.10612355 +1  109.9600847 +1  -65.9068797 +1     4     3     2
 
 TIME=     0.08
  REACTANTS AND PRODUCTS SWAPPED AROUND
 *+*+*+*+*+*+*+*+*+*+*+*+*+*+*+*+*+*+*+*+*+*+*+*+*+*+*+*+*+*+*+*+*+*+*+*+*+*+*+*+
            BAR SHORTENED BY       1.000 PERCENT
 GRADIENT CRITERION IN FLEPO =     0.200


          FOR POINT  304 SECOND STRUCTURE
 DISTANCE A - B      0.103953
 HEAT              -23.521540
 GRADIENT NORM       0.339096
 DIRECTION COSINE   -0.797840
 GEO-OK CHARGE=0 SINGLET  PM7 PRECISE
 Cyklohexan, lodicka, TS

  C(          1          X    )   0.00000000 +0    0.0000000 +0    0.0000000 +0
  C(          2          X    )   1.53431502 +1    0.0000000 +0    0.0000000 +0     1     0     0
  C(          3          X    )   1.54017386 +1  112.3477537 +1    0.0000000 +0     2     1     0
  C(          4          X    )   1.53300891 +1  112.1824181 +1   -6.9561735 +1     3     2     1
  C(          5          X    )   1.53433579 +1  110.9466288 +1   56.9967358 +1     4     3     2
  C(          6          X    )   1.53299995 +1  110.9317296 +1  -49.2293260 +1     1     2     3
  H(          7          X    )   1.10538099 +1  109.9126778 +1 -171.1264369 +1     1     2     3
  H(          8          X    )   1.10608694 +1  110.0273601 +1   72.6475863 +1     1     2     3
  H(          9          X    )   1.10492175 +1  109.4788892 +1 -122.5654919 +1     2     1     3
  H(         10          X    )   1.10584031 +1  109.4521858 +1  121.8422590 +1     2     1     3
  H(         11          X    )   1.10497516 +1  109.9565272 +1 -129.2965701 +1     3     2     1
  H(         12          X    )   1.10591930 +1  109.6403939 +1  114.6866910 +1     3     2     1
  H(         13          X    )   1.10593360 +1  109.3011139 +1  -64.7763209 +1     6     1     2
  H(         14          X    )   1.10494201 +1  109.6874885 +1  179.5423646 +1     6     1     2
  H(         15          X    )   1.10492868 +1  109.4737631 +1 -171.7432960 +1     5     4     3
  H(         16          X    )   1.10584087 +1  109.4573005 +1   72.6623988 +1     5     4     3
  H(         17          X    )   1.10554314 +1  110.0221086 +1  178.8477840 +1     4     3     2
  H(         18          X    )   1.10613507 +1  109.9371685 +1  -64.9356726 +1     4     3     2
 
 TIME=     0.07
  REACTANTS AND PRODUCTS SWAPPED AROUND
 *+*+*+*+*+*+*+*+*+*+*+*+*+*+*+*+*+*+*+*+*+*+*+*+*+*+*+*+*+*+*+*+*+*+*+*+*+*+*+*+
            BAR SHORTENED BY       1.000 PERCENT
 GRADIENT CRITERION IN FLEPO =     0.200


          FOR POINT  305 FIRST  STRUCTURE
 DISTANCE A - B      0.102913
 HEAT              -23.495150
 GRADIENT NORM       0.271032
 DIRECTION COSINE   -0.809895
 GEO-OK CHARGE=0 SINGLET  PM7 PRECISE
 Cyklohexan, lodicka, TS

  C(          1          X    )   0.00000000 +0    0.0000000 +0    0.0000000 +0
  C(          2          X    )   1.53410072 +1    0.0000000 +0    0.0000000 +0     1     0     0
  C(          3          X    )   1.54024655 +1  112.3515409 +1    0.0000000 +0     2     1     0
  C(          4          X    )   1.53313521 +1  112.2317519 +1   -5.0832354 +1     3     2     1
  C(          5          X    )   1.53411278 +1  110.9569144 +1   56.0565156 +1     4     3     2
  C(          6          X    )   1.53314739 +1  110.9429641 +1  -50.3871517 +1     1     2     3
  H(          7          X    )   1.10545866 +1  109.9171021 +1 -172.2655484 +1     1     2     3
  H(          8          X    )   1.10608128 +1  110.0199638 +1   71.5141785 +1     1     2     3
  H(          9          X    )   1.10498351 +1  109.4954908 +1 -122.5649821 +1     2     1     3
  H(         10          X    )   1.10588488 +1  109.4261017 +1  121.8499677 +1     2     1     3
  H(         11          X    )   1.10498949 +1  109.9570921 +1 -127.4133976 +1     3     2     1
  H(         12          X    )   1.10594241 +1  109.6188154 +1  116.5865614 +1     3     2     1
  H(         13          X    )   1.10602353 +1  109.3154713 +1  -65.7242946 +1     6     1     2
  H(         14          X    )   1.10513771 +1  109.6526155 +1  178.6278332 +1     6     1     2
  H(         15          X    )   1.10500029 +1  109.4876757 +1 -172.8968302 +1     5     4     3
  H(         16          X    )   1.10587848 +1  109.4218652 +1   71.5119168 +1     5     4     3
  H(         17          X    )   1.10550921 +1  109.9887381 +1  177.8840416 +1     4     3     2
  H(         18          X    )   1.10612324 +1  109.9598447 +1  -65.8971461 +1     4     3     2
 
 TIME=     0.08
  REACTANTS AND PRODUCTS SWAPPED AROUND
 *+*+*+*+*+*+*+*+*+*+*+*+*+*+*+*+*+*+*+*+*+*+*+*+*+*+*+*+*+*+*+*+*+*+*+*+*+*+*+*+
            BAR SHORTENED BY       1.000 PERCENT
 GRADIENT CRITERION IN FLEPO =     0.200


          FOR POINT  306 SECOND STRUCTURE
 DISTANCE A - B      0.101884
 HEAT              -23.521238
 GRADIENT NORM       0.339656
 DIRECTION COSINE   -0.807507
 GEO-OK CHARGE=0 SINGLET  PM7 PRECISE
 Cyklohexan, lodicka, TS

  C(          1          X    )   0.00000000 +0    0.0000000 +0    0.0000000 +0
  C(          2          X    )   1.53431210 +1    0.0000000 +0    0.0000000 +0     1     0     0
  C(          3          X    )   1.54017264 +1  112.3479305 +1    0.0000000 +0     2     1     0
  C(          4          X    )   1.53300963 +1  112.1830272 +1   -6.9374504 +1     3     2     1
  C(          5          X    )   1.53433293 +1  110.9467273 +1   56.9873391 +1     4     3     2
  C(          6          X    )   1.53300080 +1  110.9318370 +1  -49.2408913 +1     1     2     3
  H(          7          X    )   1.10538174 +1  109.9127204 +1 -171.1378312 +1     1     2     3
  H(          8          X    )   1.10608636 +1  110.0272809 +1   72.6362401 +1     1     2     3
  H(          9          X    )   1.10491934 +1  109.4790467 +1 -122.5654962 +1     2     1     3
  H(         10          X    )   1.10583771 +1  109.4518946 +1  121.8423514 +1     2     1     3
  H(         11          X    )   1.10497272 +1  109.9564618 +1 -129.2777823 +1     3     2     1
  H(         12          X    )   1.10591683 +1  109.6401495 +1  114.7057068 +1     3     2     1
  H(         13          X    )   1.10593153 +1  109.3012244 +1  -64.7858198 +1     6     1     2
  H(         14          X    )   1.10494119 +1  109.6871468 +1  179.5332159 +1     6     1     2
  H(         15          X    )   1.10492646 +1  109.4739032 +1 -171.7548281 +1     5     4     3
  H(         16          X    )   1.10583823 +1  109.4569202 +1   72.6509164 +1     5     4     3
  H(         17          X    )   1.10554279 +1  110.0217844 +1  178.8381588 +1     4     3     2
  H(         18          X    )   1.10613453 +1  109.9373847 +1  -64.9452643 +1     4     3     2
 
 TIME=     0.07
  REACTANTS AND PRODUCTS SWAPPED AROUND
 *+*+*+*+*+*+*+*+*+*+*+*+*+*+*+*+*+*+*+*+*+*+*+*+*+*+*+*+*+*+*+*+*+*+*+*+*+*+*+*+
            BAR SHORTENED BY       1.000 PERCENT
 GRADIENT CRITERION IN FLEPO =     0.200


          FOR POINT  307 FIRST  STRUCTURE
 DISTANCE A - B      0.100865
 HEAT              -23.495374
 GRADIENT NORM       0.270751
 DIRECTION COSINE   -0.818952
 GEO-OK CHARGE=0 SINGLET  PM7 PRECISE
 Cyklohexan, lodicka, TS

  C(          1          X    )   0.00000000 +0    0.0000000 +0    0.0000000 +0
  C(          2          X    )   1.53410208 +1    0.0000000 +0    0.0000000 +0     1     0     0
  C(          3          X    )   1.54024390 +1  112.3516409 +1    0.0000000 +0     2     1     0
  C(          4          X    )   1.53313343 +1  112.2313782 +1   -5.1017798 +1     3     2     1
  C(          5          X    )   1.53411438 +1  110.9568083 +1   56.0658274 +1     4     3     2
  C(          6          X    )   1.53314531 +1  110.9428480 +1  -50.3756787 +1     1     2     3
  H(          7          X    )   1.10545786 +1  109.9170568 +1 -172.2542767 +1     1     2     3
  H(          8          X    )   1.10608082 +1  110.0200319 +1   71.5253849 +1     1     2     3
  H(          9          X    )   1.10497990 +1  109.4953181 +1 -122.5649964 +1     2     1     3
  H(         10          X    )   1.10588142 +1  109.4263298 +1  121.8499066 +1     2     1     3
  H(         11          X    )   1.10498679 +1  109.9570161 +1 -127.4320806 +1     3     2     1
  H(         12          X    )   1.10593952 +1  109.6190006 +1  116.5677736 +1     3     2     1
  H(         13          X    )   1.10601969 +1  109.3152964 +1  -65.7149309 +1     6     1     2
  H(         14          X    )   1.10513301 +1  109.6529676 +1  178.6368816 +1     6     1     2
  H(         15          X    )   1.10499668 +1  109.4875389 +1 -172.8854094 +1     5     4     3
  H(         16          X    )   1.10587512 +1  109.4221903 +1   71.5233265 +1     5     4     3
  H(         17          X    )   1.10550954 +1  109.9890778 +1  177.8935929 +1     4     3     2
  H(         18          X    )   1.10612294 +1  109.9596097 +1  -65.8876066 +1     4     3     2
 
 TIME=     0.08
  REACTANTS AND PRODUCTS SWAPPED AROUND
 *+*+*+*+*+*+*+*+*+*+*+*+*+*+*+*+*+*+*+*+*+*+*+*+*+*+*+*+*+*+*+*+*+*+*+*+*+*+*+*+
            BAR SHORTENED BY       1.000 PERCENT
 AT END OF STEPWISE ASCENT OF REACTION BARRIER

 -------------------------------------------------------------------------------
 GEO-OK CHARGE=0 SINGLET  PM7 PRECISE
 Cyklohexan, lodicka, TS



     TRANSITION STATE LOCATED USING THE "SADDLE" TECHNIQUE    
     SCF FIELD WAS ACHIEVED                                   


                              PM7 CALCULATION
                                                       MOPAC v22.1.1 Windows
                                                       Tue Feb 20 18:44:51 2024




          FINAL H.O.F PLUS STRESS =        -23.49537 KCAL/MOL =     -98.30465 KJ/MOL
          FINAL STRESS            =          0.00000 KCAL/MOL =       0.00000 KJ/MOL
          FINAL HEAT OF FORMATION =        -23.49537 KCAL/MOL =     -98.30465 KJ/MOL
          TOTAL DISTORTION        =          0.00362 Angstroms
          AVERAGE DISTORTION      =          0.00020 Angstroms per atom (all atoms)
          RMS DISTORTION          =          0.00024 Angstroms per atom (all atoms)


          COSMO AREA              =        133.82 SQUARE ANGSTROMS
          COSMO VOLUME            =        128.03 CUBIC ANGSTROMS

          GRADIENT NORM           =          0.15752          =       0.03713 PER ATOM
          IONIZATION POTENTIAL    =         10.597196 EV
          HOMO LUMO ENERGIES (EV) =        -10.597  4.034
          NO. OF FILLED LEVELS    =         18
          MOLECULAR WEIGHT        =         84.1608         POINT GROUP:  C2  

          MOLECULAR DIMENSIONS (Angstroms)

            Atom       Atom       Distance
            H    14    H    11     4.92050
            H    17    H     7     4.30322
            H    13    H    18     2.81848


          SCF CALCULATIONS        =       1832
 
          WALL-CLOCK TIME         =     54.305 SECONDS
          COMPUTATION TIME        =          3 MINUTES AND 45.516 SECONDS




   ATOM                 CHEMICAL                   X               Y               Z
  NUMBER                 SYMBOL               (ANGSTROMS)     (ANGSTROMS)     (ANGSTROMS)
 
     1       C(          1          X    )   -3.21478977  *   2.51636007  *  -0.30427581  *
     2       C(          2          X    )   -4.49170421  *   1.77341115  *   0.10923330  *
     3       C(          3          X    )   -4.47865951  *   0.29713262  *  -0.32982806  *
     4       C(          4          X    )   -3.25099643  *  -0.04356855  *  -1.18262276  *
     5       C(          5          X    )   -1.95393279  *   0.30268417  *  -0.44016281  *
     6       C(          6          X    )   -1.96506730  *   1.73688623  *   0.12133263  *
     7       H(          7          X    )   -3.20310457  *   3.52526727  *   0.14739340  *
     8       H(          8          X    )   -3.20644376  *   2.67465221  *  -1.39893911  *
     9       H(          9          X    )   -5.37192113  *   2.28725857  *  -0.31755921  *
    10       H(         10          X    )   -4.61155238  *   1.83094774  *   1.20709132  *
    11       H(         11          X    )   -5.39945943  *   0.06334512  *  -0.89415148  *
    12       H(         12          X    )   -4.49676941  *  -0.35586111  *   0.56256602  *
    13       H(         13          X    )   -1.91296939  *   1.70383225  *   1.22562632  *
    14       H(         14          X    )   -1.05946396  *   2.27802027  *  -0.20785634  *
    15       H(         15          X    )   -1.09314150  *   0.16926065  *  -1.12004985  *
    16       H(         16          X    )   -1.80024016  *  -0.41586804  *   0.38628372  *
    17       H(         17          X    )   -3.25938177  *  -1.11744027  *  -1.44507515  *
    18       H(         18          X    )   -3.29505865  *   0.50304812  *  -2.14323509  *

                             CARTESIAN COORDINATES

   1    C       -3.214789772     2.516360074    -0.304275813
   2    C       -4.491704213     1.773411153     0.109233295
   3    C       -4.478659506     0.297132620    -0.329828059
   4    C       -3.250996429    -0.043568549    -1.182622756
   5    C       -1.953932789     0.302684166    -0.440162812
   6    C       -1.965067297     1.736886233     0.121332633
   7    H       -3.203104565     3.525267268     0.147393402
   8    H       -3.206443762     2.674652213    -1.398939109
   9    H       -5.371921129     2.287258574    -0.317559214
  10    H       -4.611552382     1.830947739     1.207091315
  11    H       -5.399459425     0.063345119    -0.894151482
  12    H       -4.496769408    -0.355861113     0.562566020
  13    H       -1.912969386     1.703832245     1.225626315
  14    H       -1.059463963     2.278020273    -0.207856343
  15    H       -1.093141498     0.169260647    -1.120049855
  16    H       -1.800240164    -0.415868039     0.386283719
  17    H       -3.259381771    -1.117440273    -1.445075155
  18    H       -3.295058649     0.503048120    -2.143235093


           Empirical Formula: C6 H12  =    18 atoms



      MOLECULAR POINT GROUP   :   C2  


                  EIGENVALUES  
 -29.97011 -25.69231 -25.64806 -21.20587 -20.65331 -17.42913 -16.70602 -16.39040
 -14.90996 -13.56846 -13.00759 -12.74949 -12.66126 -12.32571 -11.98327 -10.92455
 -10.73965 -10.59720   4.03440   4.17029   4.46375   4.58778   4.83818   5.33919
   5.50199   5.66976   5.89226   6.04617   6.27496   6.34855   6.49093   6.70278
   6.75940   6.80696   6.84606   6.88140


              NET ATOMIC CHARGES AND DIPOLE CONTRIBUTIONS

  ATOM NO.   TYPE          CHARGE      No. of ELECS.   s-Pop       p-Pop       
    1          C          -0.256754        4.2568     1.05748     3.19927
    2          C          -0.262224        4.2622     1.05861     3.20361
    3          C          -0.261161        4.2612     1.05833     3.20283
    4          C          -0.256758        4.2568     1.05749     3.19927
    5          C          -0.262220        4.2622     1.05862     3.20360
    6          C          -0.261156        4.2612     1.05836     3.20279
    7          H           0.126269        0.8737     0.87373
    8          H           0.135963        0.8640     0.86404
    9          H           0.127554        0.8724     0.87245
   10          H           0.131083        0.8689     0.86892
   11          H           0.127171        0.8728     0.87283
   12          H           0.132097        0.8679     0.86790
   13          H           0.132101        0.8679     0.86790
   14          H           0.127177        0.8728     0.87282
   15          H           0.127561        0.8724     0.87244
   16          H           0.131080        0.8689     0.86892
   17          H           0.126273        0.8737     0.87373
   18          H           0.135942        0.8641     0.86406
 DIPOLE           X         Y         Z       TOTAL
 POINT-CHG.     0.000     0.001    -0.004     0.004
 HYBRID         0.000    -0.007     0.019     0.020
 SUM            0.000    -0.005     0.015     0.016


          ATOMIC ORBITAL ELECTRON POPULATIONS

                  Atom                 s        px        py        pz   
   C(          1          X    )   1.05748   0.99420   1.06706   1.13802
   C(          2          X    )   1.05861   1.05656   1.01522   1.13183
   C(          3          X    )   1.05833   1.06259   1.03029   1.10995
   C(          4          X    )   1.05749   0.99431   1.12863   1.07632
   C(          5          X    )   1.05862   1.05385   1.03753   1.11222
   C(          6          X    )   1.05836   1.05964   1.01816   1.12499
   H(          7          X    )   0.87373
   H(          8          X    )   0.86404
   H(          9          X    )   0.87245
   H(         10          X    )   0.86892
   H(         11          X    )   0.87283
   H(         12          X    )   0.86790
   H(         13          X    )   0.86790
   H(         14          X    )   0.87282
   H(         15          X    )   0.87244
   H(         16          X    )   0.86892
   H(         17          X    )   0.87373
   H(         18          X    )   0.86406

 **********************
 *                    *
 * JOB ENDED NORMALLY *
 *                    *
 **********************



 TOTAL JOB TIME:            54.34 SECONDS

 == MOPAC DONE ==
