 *******************************************************************************
 **                                                                           **
 **                              MOPAC v22.1.0                                **
 **                                                                           **
 *******************************************************************************
 **          Digital Object Identifier (DOI): 10.5281/zenodo.6511958          **
 **    Visit the DOI location for information on how to cite this program.    **
 *******************************************************************************

                              PM7 CALCULATION RESULTS

 *******************************************************************************
 *  CALCULATION DONE:                                Thu Jan  4 12:15:25 2024  *
 *  PM7        - The PM7 Hamiltonian to be used
 *  SINGLET    - SPIN STATE DEFINED AS A SINGLET
 *
 *
 *
 *                 CHARGE ON SYSTEM = 0
 *
 *
 *
 *  PRECISE    - TIGHTER CRITERIA TO BE USED
 *  T=         - A TIME OF 172800.0 SECONDS REQUESTED
 *  DUMP=N     - RESTART FILE WRITTEN EVERY 7200.0 SECONDS REQUESTED
 *  LARGE      - EXPANDED OUTPUT TO BE PRINTED
 *******************************************************************************
 LARGE CHARGE=0 SINGLET PRECISE PM7
 N2O4

   ATOM   CHEMICAL          X               Y               Z
  NUMBER   SYMBOL      (ANGSTROMS)     (ANGSTROMS)     (ANGSTROMS)
 
     1       N         -2.07621000  *   2.05505000  *   0.09946000  *
     2       O         -2.86598000  *   3.01598000  *   0.06449000  *
     3       O         -2.41109000  *   0.86220000  *  -0.01586000  *
     4       N         -0.62936000  *   2.35342000  *   0.29282000  *
     5       O          0.16092000  *   1.39288000  *   0.32787000  *
     6       O         -0.29384000  *   3.54611000  *   0.40821000  *
 


          CARTESIAN COORDINATES 

    NO.       ATOM           X           Y           Z

     1         N         -2.0762      2.0551      0.0995
     2         O         -2.8660      3.0160      0.0645
     3         O         -2.4111      0.8622     -0.0159
     4         N         -0.6294      2.3534      0.2928
     5         O          0.1609      1.3929      0.3279
     6         O         -0.2938      3.5461      0.4082

 General Reference for PM7:
 "Optimization of Parameters for Semiempirical Methods VI: More Modifications to the 
 NDDO Approximations and Re-optimization of Parameters", J. J. P. Stewart, J. Mol. Mod., 1:32, 19 (2013)
 https://link.springer.com/article/10.1007/s00894-012-1667-x

           Empirical Formula: N2 O4  =     6 atoms



      MOLECULAR POINT GROUP   :   D2h 


 SINGLET STATE CALCULATION


      RHF CALCULATION, NO. OF DOUBLY OCCUPIED LEVELS = 17


          Geometry optimization using EF

          DIAGONAL MATRIX USED AS START HESSIAN

 CYCLE:     1 TIME:   0.016 TIME LEFT:  2.00D  GRAD.:   185.875 HEAT:  15.50943
 CYCLE:     2 TIME:   0.016 TIME LEFT:  2.00D  GRAD.:    82.148 HEAT:  9.070825
 CYCLE:     3 TIME:   0.016 TIME LEFT:  2.00D  GRAD.:   103.542 HEAT:  8.578987
 CYCLE:     4 TIME:   0.016 TIME LEFT:  2.00D  GRAD.:    24.895 HEAT:  7.407647
 CYCLE:     5 TIME:   0.016 TIME LEFT:  2.00D  GRAD.:    11.045 HEAT:  7.264699
 CYCLE:     6 TIME:   0.016 TIME LEFT:  2.00D  GRAD.:     5.428 HEAT:  7.207669
 CYCLE:     7 TIME:   0.000 TIME LEFT:  2.00D  GRAD.:    17.344 HEAT:  7.207155
 CYCLE:     8 TIME:   0.031 TIME LEFT:  2.00D  GRAD.:     6.977 HEAT:  7.173800
 CYCLE:     9 TIME:   0.016 TIME LEFT:  2.00D  GRAD.:     3.345 HEAT:  7.161801
 CYCLE:    10 TIME:   0.000 TIME LEFT:  2.00D  GRAD.:     5.718 HEAT:  7.166321
 CYCLE:    11 TIME:   0.016 TIME LEFT:  2.00D  GRAD.:     0.836 HEAT:  7.159248
 CYCLE:    12 TIME:   0.000 TIME LEFT:  2.00D  GRAD.:     0.592 HEAT:  7.159011
 CYCLE:    13 TIME:   0.016 TIME LEFT:  2.00D  GRAD.:     0.056 HEAT:  7.158846
 CYCLE:    14 TIME:   0.000 TIME LEFT:  2.00D  GRAD.:     0.029 HEAT:  7.158843

     GRADIENT =  0.02857 IS LESS THAN CUTOFF =  0.05000



 -------------------------------------------------------------------------------
 LARGE CHARGE=0 SINGLET PRECISE PM7
 N2O4



     GEOMETRY OPTIMISED USING EIGENVECTOR FOLLOWING (EF).     
     SCF FIELD WAS ACHIEVED                                   


                              PM7 CALCULATION
                                                       MOPAC v22.1.0 Windows
                                                       Thu Jan  4 12:15:25 2024




          FINAL HEAT OF FORMATION =          7.15884 KCAL/MOL =      29.95260 KJ/MOL


          COSMO AREA              =         98.80 SQUARE ANGSTROMS
          COSMO VOLUME            =         80.43 CUBIC ANGSTROMS

          GRADIENT NORM           =          0.02857          =       0.01166 PER ATOM
          IONIZATION POTENTIAL    =         11.209770 EV
          HOMO LUMO ENERGIES (EV) =        -11.210 -2.161
          NO. OF FILLED LEVELS    =         17
          MOLECULAR WEIGHT        =         92.0110         POINT GROUP:  D2h 

          MOLECULAR DIMENSIONS (Angstroms)

            Atom       Atom       Distance
            O     5    O     2     3.36635
            O     6    O     3     3.32474
            O     3    O     2     0.00031


          SCF CALCULATIONS        =         21
 
          WALL-CLOCK TIME         =      0.219 SECONDS
          COMPUTATION TIME        =      1.219 SECONDS




   ATOM   CHEMICAL          X               Y               Z
  NUMBER   SYMBOL      (ANGSTROMS)     (ANGSTROMS)     (ANGSTROMS)
 
     1       N         -2.11754412  *   2.04661036  *   0.09388508  *
     2       O         -2.82131002  *   3.01677036  *   0.07000007  *
     3       O         -2.36975943  *   0.87928324  *  -0.01004995  *
     4       N         -0.58764550  *   2.36197179  *   0.29845015  *
     5       O          0.11599364  *   1.39172583  *   0.32262689  *
     6       O         -0.33527010  *   3.52928564  *   0.40208131  *

                             CARTESIAN COORDINATES

   1    N       -2.117544116     2.046610361     0.093885080
   2    O       -2.821310021     3.016770359     0.070000075
   3    O       -2.369759427     0.879283237    -0.010049948
   4    N       -0.587645501     2.361971791     0.298450152
   5    O        0.115993637     1.391725831     0.322626889
   6    O       -0.335270097     3.529285636     0.402081307


           Empirical Formula: N2 O4  =     6 atoms



      MOLECULAR POINT GROUP   :   D2h 


                  EIGENVALUES  
 -39.47952 -37.12468 -33.48925 -32.29617 -27.78626 -24.70458 -20.92811 -19.66916
 -19.37352 -18.44815 -17.46416 -14.91911 -12.85910 -12.59719 -12.59069 -12.43350
 -11.20977  -2.16065  -1.76382  -0.45875   1.07010   2.65035   3.33419   4.30843


              NET ATOMIC CHARGES AND DIPOLE CONTRIBUTIONS

  ATOM NO.   TYPE          CHARGE      No. of ELECS.   s-Pop       p-Pop       
    1          N           0.498134        4.5019     1.52709     2.97477
    2          O          -0.249054        6.2491     1.93903     4.31002
    3          O          -0.249079        6.2491     1.93903     4.31005
    4          N           0.498136        4.5019     1.52709     2.97477
    5          O          -0.249058        6.2491     1.93903     4.31002
    6          O          -0.249079        6.2491     1.93903     4.31005
 DIPOLE           X         Y         Z       TOTAL
 POINT-CHG.    -0.000     0.000     0.000     0.000
 HYBRID         0.000    -0.000    -0.000     0.000
 SUM           -0.000     0.000     0.000     0.000


          ATOMIC ORBITAL ELECTRON POPULATIONS

     Atom    s        px        py        pz   
    1  N   1.52709   1.01418   0.99080   0.96979
    2  O   1.93903   1.51543   1.27344   1.52114
    3  O   1.93903   1.79722   0.99837   1.51445
    4  N   1.52709   1.01418   0.99080   0.96979
    5  O   1.93903   1.51555   1.27335   1.52112
    6  O   1.93903   1.79716   0.99840   1.51449
 *******************************************************************************
 **                                                                           **
 **                              MOPAC v22.1.0                                **
 **                                                                           **
 *******************************************************************************
 **          Digital Object Identifier (DOI): 10.5281/zenodo.6511958          **
 **    Visit the DOI location for information on how to cite this program.    **
 *******************************************************************************

                              PM7 CALCULATION RESULTS

 *******************************************************************************
 *  CALCULATION DONE:                                Thu Jan  4 12:15:25 2024  *
 *  PM7        - The PM7 Hamiltonian to be used
 *  OLDGEO     - PREVIOUS GEOMETRY TO BE USED
 *  PRECISE    - TIGHTER CRITERIA TO BE USED
 *  T=         - A TIME OF 172800.0 SECONDS REQUESTED
 *  DUMP=N     - RESTART FILE WRITTEN EVERY 7200.0 SECONDS REQUESTED
 *  THERMO     - THERMODYNAMIC QUANTITIES TO BE CALCULATED
 *******************************************************************************
OLDGEO PRECISE PM7 THERMO
 dikyslik triplet

   ATOM   CHEMICAL          X               Y               Z
  NUMBER   SYMBOL      (ANGSTROMS)     (ANGSTROMS)     (ANGSTROMS)
 
     1       N         -2.11754412  *   2.04661036  *   0.09388508  *
     2       O         -2.82131002  *   3.01677036  *   0.07000007  *
     3       O         -2.36975943  *   0.87928324  *  -0.01004995  *
     4       N         -0.58764550  *   2.36197179  *   0.29845015  *
     5       O          0.11599364  *   1.39172583  *   0.32262689  *
     6       O         -0.33527010  *   3.52928564  *   0.40208131  *
 


          CARTESIAN COORDINATES 

    NO.       ATOM           X           Y           Z

     1         N         -2.1175      2.0466      0.0939
     2         O         -2.8213      3.0168      0.0700
     3         O         -2.3698      0.8793     -0.0100
     4         N         -0.5876      2.3620      0.2985
     5         O          0.1160      1.3917      0.3226
     6         O         -0.3353      3.5293      0.4021

 General Reference for PM7:
 "Optimization of Parameters for Semiempirical Methods VI: More Modifications to the 
 NDDO Approximations and Re-optimization of Parameters", J. J. P. Stewart, J. Mol. Mod., 1:32, 19 (2013)
 https://link.springer.com/article/10.1007/s00894-012-1667-x

           Empirical Formula: N2 O4  =     6 atoms



      MOLECULAR POINT GROUP   :   D2h 


      RHF CALCULATION, NO. OF DOUBLY OCCUPIED LEVELS = 17



          HEAT OF FORMATION =       7.158843 KCALS/MOLE


          CARTESIAN COORDINATE DERIVATIVES

   NUMBER  ATOM         X            Y            Z

     1       N      0.013570    -0.003335    -0.002140
     2       O      0.012084     0.010227     0.000403
     3       O     -0.006937    -0.013534     0.000760
     4       N     -0.007667    -0.000352     0.002933
     5       O     -0.004703    -0.001048    -0.001158
     6       O     -0.006349     0.008039    -0.000799
 


          GRADIENT NORM =   0.02967

          MOLECULAR WEIGHT =   92.01



          ROTATIONAL CONSTANTS IN CM(-1)

          A =    0.22046693   B =    0.13792599   C =    0.08484576



           PRINCIPAL MOMENTS OF INERTIA IN UNITS OF 10**(-40)*GRAM-CM**2

          A =      126.9703   B =      202.9549   C =      329.9252


          ORIENTATION OF MOLECULE IN FORCE CALCULATION

    NO.       ATOM         X         Y         Z

     1          N       0.3235    0.7182   -0.0000
     2          O       1.5223    0.7182   -0.0000
     3          O      -0.4710    1.6158   -0.0000
     4          N      -0.3235   -0.7182    0.0000
     5          O      -1.5223   -0.7181    0.0003
     6          O       0.4710   -1.6159   -0.0003


    FIRST DERIVATIVES WILL BE USED IN THE CALCULATION OF SECOND DERIVATIVES

          ESTIMATED TIME TO COMPLETE CALCULATION =        1.12 SECONDS

    FOR POINT-GROUP D2h  THERE ARE   8 UNIQUE SYMMETRY FUNCTIONS.

 STEP:   1 TIME =     0.03 SECS, INTEGRAL =      0.03 TIME LEFT: 172799.97
 STEP:   2 TIME =     0.05 SECS, INTEGRAL =      0.08 TIME LEFT: 172799.92
 STEP:   3 TIME =     0.05 SECS, INTEGRAL =      0.12 TIME LEFT: 172799.88
 STEP:   4 TIME =     0.05 SECS, INTEGRAL =      0.17 TIME LEFT: 172799.83
 STEP:   5 TIME =     0.03 SECS, INTEGRAL =      0.20 TIME LEFT: 172799.80
 STEP:   6 TIME =     0.05 SECS, INTEGRAL =      0.25 TIME LEFT: 172799.75
 STEP:   7                       INTEGRAL =      0.25 TIME LEFT: 172799.75
 STEP:   8                       INTEGRAL =      0.25 TIME LEFT: 172799.75
 STEP:   9                       INTEGRAL =      0.25 TIME LEFT: 172799.75
 STEP:  10                       INTEGRAL =      0.25 TIME LEFT: 172799.75
 STEP:  11                       INTEGRAL =      0.25 TIME LEFT: 172799.75
 STEP:  12                       INTEGRAL =      0.25 TIME LEFT: 172799.75
 STEP:  13                       INTEGRAL =      0.25 TIME LEFT: 172799.75
 STEP:  14                       INTEGRAL =      0.25 TIME LEFT: 172799.75
 STEP:  15                       INTEGRAL =      0.25 TIME LEFT: 172799.75
 STEP:  16                       INTEGRAL =      0.25 TIME LEFT: 172799.75
 STEP:  17                       INTEGRAL =      0.25 TIME LEFT: 172799.75
 STEP:  18                       INTEGRAL =      0.25 TIME LEFT: 172799.75

(To convert to Hartree/Bohr^2, multiply by (10^(-21) x N x a0^2)/(4.184 x 627.51) =  0.0642)


           FORCE MATRIX IN MILLIDYNES/ANGSTROM


                  N  1       O  2       O  3       N  4       O  5       O  6
 ------------------------------------------------------------------------------
     N    1  20.957811
     O    2  11.065524  13.440231
     O    3  11.064657   2.032420  13.440231
     N    4   1.237212   0.945256   0.945256  20.957811
     O    5   0.948269   0.344241   0.479002  11.064657  13.440231
     O    6   0.947656   0.479002   0.344241  11.065524   2.032420  13.440231


          HEAT OF FORMATION =       7.158843 KCALS/MOLE

          ZERO POINT ENERGY      14.782 KCAL/MOL

         NOTE: SYSTEM IS NOT A GROUND STATE, THEREFORE ZERO POINT
         ENERGY IS NOT MEANINGFULL. ZERO POINT ENERGY PRINTED
         DOES NOT INCLUDE THE  1 IMAGINARY FREQUENCIES


           NORMAL COORDINATE ANALYSIS (Total motion = 1 Angstrom)


   Root No.       1         2         3         4         5         6         7         8

                 1 Au      1 B2u     1 Ag      1 B3u     1 B3g     1 B1u     1 B2g     2 Ag  

                 -33.3     284.2     431.7     443.7     514.0     663.3     683.8     739.5
  
           1   -0.0000    0.0637    0.0435    0.0000    0.1324    0.0824   -0.0000   -0.1057
           2    0.0000   -0.0287    0.0966   -0.0000   -0.0597    0.1829    0.0000   -0.2345
           3   -0.0000    0.0000   -0.0000    0.2666   -0.0000   -0.0000   -0.3249    0.0000
           4    0.0000    0.0596    0.0398   -0.0000    0.1455    0.0745    0.0000   -0.0908
           5   -0.0000    0.2067    0.1929    0.0000    0.1015   -0.1299   -0.0000    0.0806
           6    0.2500    0.0000    0.0000   -0.1167   -0.0000    0.0000    0.0875    0.0000
           7   -0.0000   -0.1153    0.1181   -0.0000    0.0204   -0.1466    0.0000    0.1205
           8    0.0000   -0.1815    0.1577    0.0000   -0.1762   -0.0302   -0.0000   -0.0146
           9   -0.2500    0.0000   -0.0000   -0.1167   -0.0000    0.0000    0.0875   -0.0000
          10    0.0000    0.0637   -0.0435    0.0000   -0.1324    0.0824    0.0000    0.1057
          11   -0.0000   -0.0287   -0.0966   -0.0000    0.0597    0.1829   -0.0000    0.2345
          12    0.0000   -0.0000    0.0000    0.2666    0.0000   -0.0000    0.3249   -0.0000
          13    0.0000    0.0596   -0.0398   -0.0000   -0.1455    0.0745   -0.0000    0.0908
          14   -0.0000    0.2067   -0.1929    0.0000   -0.1015   -0.1299    0.0000   -0.0806
          15    0.2500   -0.0000   -0.0000   -0.1167    0.0000   -0.0000   -0.0875   -0.0000
          16   -0.0000   -0.1153   -0.1181   -0.0000   -0.0204   -0.1466   -0.0000   -0.1205
          17    0.0000   -0.1815   -0.1577    0.0000    0.1762   -0.0302    0.0000    0.0146
          18   -0.2500   -0.0000    0.0000   -0.1167    0.0000    0.0000   -0.0875    0.0000


   Root No.       9        10        11        12

                 2 B1u     3 Ag      2 B3g     2 B2u 

                1401.0    1407.6    1859.7    1911.7
  
           1   -0.0630    0.0594    0.2404    0.2316
           2   -0.1399    0.1318   -0.1083   -0.1044
           3    0.0000   -0.0000   -0.0000   -0.0000
           4    0.1732   -0.1777   -0.1181   -0.1229
           5   -0.0044    0.0019    0.0040   -0.0022
           6   -0.0000    0.0000    0.0000    0.0000
           7   -0.1181    0.1192   -0.0813   -0.0798
           8    0.1268   -0.1318    0.0858    0.0935
           9   -0.0000   -0.0000    0.0000    0.0000
          10   -0.0630   -0.0594   -0.2404    0.2316
          11   -0.1399   -0.1318    0.1083   -0.1044
          12    0.0000    0.0000    0.0000   -0.0000
          13    0.1732    0.1777    0.1181   -0.1229
          14   -0.0044   -0.0019   -0.0040   -0.0022
          15   -0.0000   -0.0000   -0.0000    0.0000
          16   -0.1180   -0.1192    0.0813   -0.0798
          17    0.1268    0.1318   -0.0858    0.0935
          18    0.0000    0.0000   -0.0000    0.0000


           MASS-WEIGHTED COORDINATE ANALYSIS (NORMAL COORDINATES)


   Root No.       1         2         3         4         5         6         7         8

                 1 Au      1 B2u     1 Ag      1 B3u     1 B3g     1 B1u     1 B2g     2 Ag  

                 -33.3     284.2     431.7     443.7     514.0     663.3     683.8     739.5
  
           1   -0.0000    0.1355    0.0974    0.0001    0.3071    0.1927   -0.0001   -0.2365
           2    0.0000   -0.0610    0.2162   -0.0000   -0.1384    0.4277    0.0000   -0.5249
           3   -0.0000    0.0000   -0.0000    0.5897   -0.0000   -0.0000   -0.6549    0.0000
           4    0.0001    0.1354    0.0952   -0.0000    0.3605    0.1862    0.0000   -0.2171
           5   -0.0000    0.4697    0.4613    0.0000    0.2516   -0.3245   -0.0000    0.1927
           6    0.5000    0.0001    0.0000   -0.2759   -0.0000    0.0000    0.1886    0.0000
           7   -0.0001   -0.2621    0.2824   -0.0000    0.0504   -0.3665    0.0000    0.2882
           8    0.0000   -0.4126    0.3770    0.0000   -0.4367   -0.0756   -0.0000   -0.0349
           9   -0.5000    0.0001   -0.0000   -0.2759   -0.0000    0.0000    0.1886   -0.0000
          10    0.0000    0.1355   -0.0974    0.0001   -0.3071    0.1927    0.0001    0.2365
          11   -0.0000   -0.0610   -0.2162   -0.0000    0.1384    0.4277   -0.0000    0.5249
          12    0.0000   -0.0001    0.0000    0.5897    0.0000   -0.0000    0.6549   -0.0000
          13    0.0001    0.1354   -0.0952   -0.0000   -0.3605    0.1862   -0.0000    0.2171
          14   -0.0000    0.4697   -0.4613    0.0000   -0.2516   -0.3246    0.0000   -0.1927
          15    0.5000   -0.0000   -0.0000   -0.2759    0.0000   -0.0001   -0.1886   -0.0000
          16   -0.0001   -0.2621   -0.2824   -0.0000   -0.0504   -0.3664   -0.0000   -0.2882
          17    0.0000   -0.4126   -0.3770    0.0000    0.4367   -0.0756    0.0000    0.0349
          18   -0.5000   -0.0000    0.0000   -0.2759    0.0000    0.0001   -0.1886    0.0000


   Root No.       9        10        11        12

                 2 B1u     3 Ag      2 B3g     2 B2u 

                1401.0    1407.6    1859.7    1911.7
  
           1   -0.1468    0.1377    0.5338    0.5203
           2   -0.3259    0.3056   -0.2405   -0.2344
           3    0.0000   -0.0000   -0.0001   -0.0001
           4    0.4313   -0.4402   -0.2802   -0.2952
           5   -0.0109    0.0047    0.0096   -0.0052
           6   -0.0000    0.0001    0.0000    0.0000
           7   -0.2939    0.2952   -0.1928   -0.1917
           8    0.3158   -0.3266    0.2035    0.2245
           9   -0.0000   -0.0001    0.0000    0.0000
          10   -0.1468   -0.1377   -0.5338    0.5203
          11   -0.3259   -0.3056    0.2405   -0.2344
          12    0.0000    0.0000    0.0001   -0.0001
          13    0.4313    0.4402    0.2802   -0.2952
          14   -0.0109   -0.0047   -0.0096   -0.0052
          15   -0.0001   -0.0001   -0.0000    0.0001
          16   -0.2939   -0.2952    0.1928   -0.1917
          17    0.3158    0.3266   -0.2035    0.2245
          18    0.0001    0.0001   -0.0000    0.0001


          DESCRIPTION OF VIBRATIONS


 VIBRATION          1    1Au         ATOM PAIR     ENERGY CONTRIBUTION    RADIAL
 FREQUENCY           -33.29         N 4 -- O 6         +25.6% (-99.9%)      0.0%
 TRANSITION DIPOLE   0.0000         N 1 -- O 2         +25.6% (-99.9%)      0.0%
 TRAVEL (Ang.)       0.7116         N 4 -- O 5         +25.6% (-99.9%)      0.0%
 REDUCED MASS        3.9999         N 1 -- O 3         +25.6% (-99.9%)      0.0%
 EFFECTIVE MASS     15.9994
 FORCE CONSTANT     -0.0026

 VIBRATION          2    1B2u        ATOM PAIR     ENERGY CONTRIBUTION    RADIAL
 FREQUENCY           284.20         N 1 -- N 4         +19.2% (114.2%)      0.0%
 TRANSITION DIPOLE   0.5186         O 2 -- O 3         +16.4% (105.4%)      0.0%
 TRAVEL (Ang.)       0.2543         O 5 -- O 6         +16.4% (105.4%)      0.0%
 REDUCED MASS        3.6681         N 1 -- O 2         +12.0% ( 90.1%)      0.0%
 EFFECTIVE MASS     15.9953         N 1 -- O 3         +12.0% ( 90.1%)      0.0%
 FORCE CONSTANT      0.1746         N 4 -- O 5         +12.0% ( 90.1%)      0.0%
                            N 4 -- O 6         +12.0% ( 90.1%)      0.0%

 VIBRATION          3    1Ag         ATOM PAIR     ENERGY CONTRIBUTION    RADIAL
 FREQUENCY           431.68         O 2 -- O 3         +22.0% ( 73.4%)    100.0%
 TRANSITION DIPOLE   0.0000         O 5 -- O 6         +22.0% ( 73.4%)    100.0%
 TRAVEL (Ang.)       0.2196         N 1 -- N 4         +20.5% ( 70.7%)    100.0%
 REDUCED MASS        3.2394         N 4 -- O 5          +8.9% ( 46.5%)      0.0%
 EFFECTIVE MASS     15.8010
 FORCE CONSTANT      0.3557

 VIBRATION          4    1B3u        ATOM PAIR     ENERGY CONTRIBUTION    RADIAL
 FREQUENCY           443.75         N 4 -- O 6         +20.3% ( 79.7%)      0.0%
 TRANSITION DIPOLE   1.6429         N 1 -- O 2         +20.3% ( 79.7%)      0.0%
 TRAVEL (Ang.)       0.2011         N 4 -- O 5         +20.3% ( 79.7%)      0.0%
 REDUCED MASS        3.7588         N 1 -- O 3         +20.3% ( 79.7%)      0.0%
 EFFECTIVE MASS     14.5994         N 1 -- N 4         +15.5% ( 69.6%)      0.0%
 FORCE CONSTANT      0.4361

 VIBRATION          5    1B3g        ATOM PAIR     ENERGY CONTRIBUTION    RADIAL
 FREQUENCY           513.99         N 1 -- N 4         +27.5% (144.5%)      0.0%
 TRANSITION DIPOLE   0.0000         O 5 -- O 6         +17.5% (115.5%)      0.0%
 TRAVEL (Ang.)       0.2184         O 2 -- O 3         +17.5% (115.5%)      0.0%
 REDUCED MASS        2.7512         N 4 -- O 6          +9.4% ( 84.4%)      1.8%
 EFFECTIVE MASS     15.6708
 FORCE CONSTANT      0.4282

 VIBRATION          6    1B1u        ATOM PAIR     ENERGY CONTRIBUTION    RADIAL
 FREQUENCY           663.32         N 1 -- N 4         +22.0% ( 83.4%)      0.0%
 TRANSITION DIPOLE   5.3604         O 2 -- O 3         +13.0% ( 64.2%)    100.0%
 TRAVEL (Ang.)       0.1973         O 5 -- O 6         +13.0% ( 64.2%)    100.0%
 REDUCED MASS        2.6102         N 1 -- O 3         +13.0% ( 64.0%)      0.0%
 EFFECTIVE MASS     15.1395         N 4 -- O 5         +13.0% ( 64.0%)      0.0%
 FORCE CONSTANT      0.6767         N 1 -- O 2         +13.0% ( 64.0%)      0.0%
                            N 4 -- O 6         +13.0% ( 64.0%)      0.0%

 VIBRATION          7    1B2g        ATOM PAIR     ENERGY CONTRIBUTION    RADIAL
 FREQUENCY           683.77         N 1 -- N 4         +37.9% ( 85.8%)      0.0%
 TRANSITION DIPOLE   0.0000         N 1 -- O 2         +15.3% ( 54.5%)      0.0%
 TRAVEL (Ang.)       0.1373         N 4 -- O 5         +15.3% ( 54.5%)      0.0%
 REDUCED MASS        5.2340         N 4 -- O 6         +15.3% ( 54.5%)      0.0%
 EFFECTIVE MASS     14.2814         N 1 -- O 3         +15.3% ( 54.5%)      0.0%
 FORCE CONSTANT      1.4418

 VIBRATION          8    2Ag         ATOM PAIR     ENERGY CONTRIBUTION    RADIAL
 FREQUENCY           739.47         N 1 -- N 4         +30.1% (100.2%)    100.0%
 TRANSITION DIPOLE   0.0000         N 4 -- O 5         +12.5% ( 64.5%)      0.1%
 TRAVEL (Ang.)       0.1607         N 1 -- O 2         +12.5% ( 64.5%)      0.1%
 REDUCED MASS        3.5317         N 4 -- O 6         +12.5% ( 64.5%)      0.1%
 EFFECTIVE MASS     14.7012         N 1 -- O 3         +12.5% ( 64.5%)      0.1%
 FORCE CONSTANT      1.1378         O 5 -- O 6         +10.0% ( 57.9%)    100.0%
                            O 2 -- O 3         +10.0% ( 57.9%)    100.0%

 VIBRATION          9    2B1u        ATOM PAIR     ENERGY CONTRIBUTION    RADIAL
 FREQUENCY          1400.95         O 2 -- O 3         +17.4% ( 54.9%)    100.0%
 TRANSITION DIPOLE   6.8797         O 5 -- O 6         +17.4% ( 54.9%)    100.0%
 TRAVEL (Ang.)       0.1342         N 1 -- O 3         +15.0% ( 51.0%)     77.1%
 REDUCED MASS        2.6741         N 4 -- O 5         +15.0% ( 51.0%)     77.1%
 EFFECTIVE MASS     15.4793         N 1 -- O 2         +15.0% ( 51.0%)     77.1%
 FORCE CONSTANT      3.0923         N 4 -- O 6         +15.0% ( 51.0%)     77.1%

 VIBRATION         10    3Ag         ATOM PAIR     ENERGY CONTRIBUTION    RADIAL
 FREQUENCY          1407.57         O 5 -- O 6         +17.9% ( 55.7%)    100.0%
 TRANSITION DIPOLE   0.0000         O 2 -- O 3         +17.9% ( 55.7%)    100.0%
 TRAVEL (Ang.)       0.1318         N 4 -- O 6         +14.7% ( 50.4%)     78.7%
 REDUCED MASS        2.7578         N 1 -- O 3         +14.7% ( 50.4%)     78.6%
 EFFECTIVE MASS     15.5430         N 4 -- O 5         +14.7% ( 50.4%)     78.7%
 FORCE CONSTANT      3.2193         N 1 -- O 2         +14.7% ( 50.4%)     78.7%

 VIBRATION         11    2B3g        ATOM PAIR     ENERGY CONTRIBUTION    RADIAL
 FREQUENCY          1859.71         N 1 -- N 4         +22.8% ( 69.4%)      0.0%
 TRANSITION DIPOLE   0.0000         N 1 -- O 3         +18.0% ( 61.6%)     91.4%
 TRAVEL (Ang.)       0.0992         N 1 -- O 2         +18.0% ( 61.6%)     91.4%
 REDUCED MASS        3.6873         N 4 -- O 6         +18.0% ( 61.6%)     91.4%
 EFFECTIVE MASS     14.6197         N 4 -- O 5         +18.0% ( 61.6%)     91.4%
 FORCE CONSTANT      7.5136

 VIBRATION         12    2B2u        ATOM PAIR     ENERGY CONTRIBUTION    RADIAL
 FREQUENCY          1911.71         N 1 -- N 4         +21.7% ( 65.2%)      0.0%
 TRANSITION DIPOLE   8.5469         N 4 -- O 5         +18.1% ( 59.5%)     92.7%
 TRAVEL (Ang.)       0.1010         N 4 -- O 6         +18.1% ( 59.5%)     92.7%
 REDUCED MASS        3.4577         N 1 -- O 2         +18.1% ( 59.5%)     92.7%
 EFFECTIVE MASS     14.6864         N 1 -- O 3         +18.1% ( 59.5%)     92.7%
 FORCE CONSTANT      7.4453

      SYMMETRY NUMBER FOR POINT-GROUP D2h =  4


          SYSTEM IS A GROUND STATE



 dikyslik triplet


          MOLECULE IS NOT LINEAR

          THERE ARE 12 GENUINE VIBRATIONS IN THIS SYSTEM
          THIS THERMODYNAMICS CALCULATION IS LIMITED TO
          MOLECULES WHICH HAVE NO INTERNAL ROTATIONS




                    CALCULATED THERMODYNAMIC PROPERTIES
                                          *
   TEMP. (K)   PARTITION FUNCTION   H.O.F.    ENTHALPY  HEAT CAPACITY ENTROPY
                                   KCAL/MOL   CAL/MOLE    CAL/K/MOL  CAL/K/MOL


 298.00  VIB.     0.1422D+02                  1526.7689    10.4391    10.3993
         ROT.     0.2600D+05                   888.2803     2.9808    23.1827
         INT.     0.3699D+06                  2415.0492    13.4200    33.5820
         TRA.     0.8533D+27                  1480.4672     4.9680    39.4676
         TOT.                        7.159    3895.5164    18.3880    73.0496

 200.00  VIB.     0.6166D+01                   663.4856     6.9919     6.9322
         ROT.     0.1430D+05                   596.1613     2.9808    21.9941
         INT.     0.8815D+05                  1259.6469     9.9727    28.9262
         TRA.     0.4691D+27                   993.6021     4.9680    37.4864
         TOT.                        5.517    2253.2490    14.9407    66.4127

 210.00  VIB.     0.6704D+01                   735.4319     7.3955     7.2831
         ROT.     0.1538D+05                   625.9693     2.9808    22.1395
         INT.     0.1031D+06                  1361.4012    10.3763    29.4226
         TRA.     0.5048D+27                  1043.2822     4.9680    37.7288
         TOT.                        5.668    2404.6835    15.3444    67.1514

 220.00  VIB.     0.7292D+01                   811.3583     7.7878     7.6362
         ROT.     0.1649D+05                   655.7774     2.9808    22.2782
         INT.     0.1203D+06                  1467.1357    10.7686    29.9144
         TRA.     0.5412D+27                  1092.9623     4.9680    37.9599
         TOT.                        5.823    2560.0980    15.7366    67.8743

 230.00  VIB.     0.7936D+01                   891.1471     8.1680     7.9909
         ROT.     0.1763D+05                   685.5855     2.9808    22.4107
         INT.     0.1399D+06                  1576.7326    11.1488    30.4015
         TRA.     0.5786D+27                  1142.6424     4.9680    38.1808
         TOT.                        5.983    2719.3751    16.1168    68.5823

 240.00  VIB.     0.8640D+01                   974.6766     8.5359     8.3463
         ROT.     0.1879D+05                   715.3935     2.9808    22.5375
         INT.     0.1624D+06                  1690.0701    11.5167    30.8838
         TRA.     0.6167D+27                  1192.3226     4.9680    38.3922
         TOT.                        6.146    2882.3927    16.4847    69.2760

 250.00  VIB.     0.9409D+01                  1061.8239     8.8915     8.7020
         ROT.     0.1998D+05                   745.2016     2.9808    22.6592
         INT.     0.1880D+06                  1807.0255    11.8724    31.3612
         TRA.     0.6556D+27                  1242.0027     4.9680    38.5950
         TOT.                        6.312    3049.0281    16.8404    69.9562

 260.00  VIB.     0.1025D+02                  1152.4675     9.2352     9.0575
         ROT.     0.2119D+05                   775.0097     2.9808    22.7761
         INT.     0.2172D+06                  1927.4771    12.2160    31.8336
         TRA.     0.6954D+27                  1291.6828     4.9680    38.7899
         TOT.                        6.482    3219.1599    17.1840    70.6235

 270.00  VIB.     0.1117D+02                  1246.4891     9.5672     9.4123
         ROT.     0.2243D+05                   804.8177     2.9808    22.8886
         INT.     0.2505D+06                  2051.3068    12.5480    32.3009
         TRA.     0.7359D+27                  1341.3629     4.9680    38.9774
         TOT.                        6.656    3392.6697    17.5160    71.2783

 280.00  VIB.     0.1218D+02                  1343.7746     9.8881     9.7660
         ROT.     0.2368D+05                   834.6258     2.9808    22.9970
         INT.     0.2884D+06                  2178.4004    12.8689    32.7631
         TRA.     0.7771D+27                  1391.0430     4.9680    39.1581
         TOT.                        6.833    3569.4434    17.8369    71.9211

 290.00  VIB.     0.1327D+02                  1444.2150    10.1983    10.1185
         ROT.     0.2496D+05                   864.4339     2.9808    23.1016
         INT.     0.3314D+06                  2308.6489    13.1791    33.2201
         TRA.     0.8191D+27                  1440.7231     4.9680    39.3324
         TOT.                        7.013    3749.3720    18.1471    72.5525

 300.00  VIB.     0.1447D+02                  1547.7065    10.4984    10.4693
         ROT.     0.2627D+05                   894.2419     2.9808    23.2027
         INT.     0.3801D+06                  2441.9484    13.4792    33.6720
         TRA.     0.8619D+27                  1490.4032     4.9680    39.5008
         TOT.                        7.196    3932.3516    18.4472    73.1728

 310.00  VIB.     0.1578D+02                  1654.1509    10.7889    10.8183
         ROT.     0.2759D+05                   924.0500     2.9808    23.3004
         INT.     0.4354D+06                  2578.2009    13.7698    34.1187
         TRA.     0.9053D+27                  1540.0833     4.9680    39.6637
         TOT.                        7.382    4118.2842    18.7378    73.7824

 320.00  VIB.     0.1721D+02                  1763.4554    11.0705    11.1653
         ROT.     0.2894D+05                   953.8580     2.9808    23.3950
         INT.     0.4980D+06                  2717.3135    14.0513    34.5603
         TRA.     0.9495D+27                  1589.7634     4.9680    39.8214
         TOT.                        7.570    4307.0769    19.0193    74.3818

 330.00  VIB.     0.1877D+02                  1875.5326    11.3436    11.5102
         ROT.     0.3030D+05                   983.6661     2.9808    23.4868
         INT.     0.5687D+06                  2859.1987    14.3244    34.9969
         TRA.     0.9943D+27                  1639.4435     4.9680    39.9743
         TOT.                        7.762    4498.6422    19.2924    74.9712

 340.00  VIB.     0.2047D+02                  1990.3000    11.6086    11.8527
         ROT.     0.3169D+05                  1013.4742     2.9808    23.5758
         INT.     0.6486D+06                  3003.7741    14.5894    35.4285
         TRA.     0.1040D+28                  1689.1236     4.9680    40.1226
         TOT.                        7.956    4692.8977    19.5574    75.5511

 350.00  VIB.     0.2232D+02                  2107.6796    11.8661    12.1930
         ROT.     0.3310D+05                  1043.2822     2.9808    23.6622
         INT.     0.7387D+06                  3150.9619    14.8469    35.8551
         TRA.     0.1086D+28                  1738.8037     4.9680    40.2666
         TOT.                        8.153    4889.7656    19.8149    76.1218

 360.00  VIB.     0.2434D+02                  2227.5982    12.1165    12.5308
         ROT.     0.3453D+05                  1073.0903     2.9808    23.7461
         INT.     0.8402D+06                  3300.6885    15.0973    36.2769
         TRA.     0.1133D+28                  1788.4838     4.9680    40.4066
         TOT.                        8.352    5089.1724    20.0653    76.6835

 370.00  VIB.     0.2653D+02                  2349.9862    12.3600    12.8661
         ROT.     0.3598D+05                  1102.8984     2.9808    23.8278
         INT.     0.9545D+06                  3452.8846    15.3408    36.6939
         TRA.     0.1180D+28                  1838.1639     4.9680    40.5427
         TOT.                        8.554    5291.0485    20.3089    77.2366

 380.00  VIB.     0.2892D+02                  2474.7777    12.5972    13.1989
         ROT.     0.3744D+05                  1132.7064     2.9808    23.9073
         INT.     0.1083D+07                  3607.4841    15.5780    37.1062
         TRA.     0.1229D+28                  1887.8440     4.9680    40.6752
         TOT.                        8.759    5495.3282    20.5460    77.7814

 390.00  VIB.     0.3153D+02                  2601.9102    12.8283    13.5291
         ROT.     0.3893D+05                  1162.5145     2.9808    23.9847
         INT.     0.1227D+07                  3764.4246    15.8091    37.5138
         TRA.     0.1277D+28                  1937.5242     4.9680    40.8042
         TOT.                        8.965    5701.9488    20.7771    78.3181

 400.00  VIB.     0.3436D+02                  2731.3240    13.0535    13.8567
         ROT.     0.4044D+05                  1192.3226     2.9808    24.0602
         INT.     0.1389D+07                  3923.6465    16.0343    37.9169
         TRA.     0.1327D+28                  1987.2043     4.9680    40.9300
         TOT.                        9.174    5910.8508    21.0023    78.8470

   *: NOTE: HEATS OF FORMATION ARE RELATIVE TO THE
            ELEMENTS IN THEIR STANDARD STATE AT 298K
              (=  Standard Enthalpy of Formation).

            Hvib:  Zero-point energy is not included.
                   frequencies of less than zero cm-1 are not included.
            Hrot = (3/2)RT
            Htra = (3/2)RT + pV = (5/2)RT

            Heat capacity is Cp, not Cv

          For more information, see: HTTP://OpenMOPAC.net/Manual/thermochemistry.html


           FORCE CONSTANT IN CARTESIAN COORDINATES (Millidynes/A)

    ATOM   CHEMICAL       X               Y               Z
   NUMBER   SYMBOL  FORCE CONSTANT  FORCE CONSTANT  FORCE CONSTANT

      1       N       17.577370        8.578684        2.221110
      2       O       13.361543        1.335973        0.293698
      3       O        6.888908        7.808607        0.293698
      4       N       17.577370        8.578684        2.221110
      5       O       13.361543        1.335973        0.293698
      6       O        6.888908        7.808607        0.293698

 **********************
 *                    *
 * JOB ENDED NORMALLY *
 *                    *
 **********************



 TOTAL JOB TIME:             0.73 SECONDS

 == MOPAC DONE ==
