 *******************************************************************************
 **                                                                           **
 **                              MOPAC v22.1.0                                **
 **                                                                           **
 *******************************************************************************
 **          Digital Object Identifier (DOI): 10.5281/zenodo.6511958          **
 **    Visit the DOI location for information on how to cite this program.    **
 *******************************************************************************

                              PM7 CALCULATION RESULTS

 *******************************************************************************
 *  CALCULATION DONE:                                Tue Jan 30 15:46:32 2024  *
 *  PM7        - The PM7 Hamiltonian to be used
 *  SINGLET    - SPIN STATE DEFINED AS A SINGLET
 *
 *
 *
 *                 CHARGE ON SYSTEM = 0
 *
 *
 *
 *  PRECISE    - TIGHTER CRITERIA TO BE USED
 *  T=         - A TIME OF 172800.0 SECONDS REQUESTED
 *  DUMP=N     - RESTART FILE WRITTEN EVERY 7200.0 SECONDS REQUESTED
 *  LARGE      - EXPANDED OUTPUT TO BE PRINTED
 *******************************************************************************
 PRECISE LARGE CHARGE=0 SINGLET  PM7
 HBr  PM7

   ATOM   CHEMICAL          X               Y               Z
  NUMBER   SYMBOL      (ANGSTROMS)     (ANGSTROMS)     (ANGSTROMS)
 
     1      Br         -5.09707000  *   0.50197000  *   0.00000000  *
     2       H         -3.72142000  *   0.50197000  *   0.00000000  *
 


          CARTESIAN COORDINATES 

    NO.       ATOM           X           Y           Z

     1        Br         -5.0971      0.5020      0.0000
     2         H         -3.7214      0.5020      0.0000

 General Reference for PM7:
 "Optimization of Parameters for Semiempirical Methods VI: More Modifications to the 
 NDDO Approximations and Re-optimization of Parameters", J. J. P. Stewart, J. Mol. Mod., 1:32, 19 (2013)
 https://link.springer.com/article/10.1007/s00894-012-1667-x

           Empirical Formula: H Br  =     2 atoms



      MOLECULAR POINT GROUP   :   C*v 


 SINGLET STATE CALCULATION


      RHF CALCULATION, NO. OF DOUBLY OCCUPIED LEVELS = 4


          Geometry optimization using EF

          DIAGONAL MATRIX USED AS START HESSIAN

 CYCLE:     1 TIME:   0.016 TIME LEFT:  2.00D  GRAD.:    75.603 HEAT: -1.951789
 CYCLE:     2 TIME:   0.000 TIME LEFT:  2.00D  GRAD.:    17.194 HEAT: -3.934321
 CYCLE:     3 TIME:   0.000 TIME LEFT:  2.00D  GRAD.:     2.614 HEAT: -4.074319
 CYCLE:     4 TIME:   0.000 TIME LEFT:  2.00D  GRAD.:     0.117 HEAT: -4.077460
 CYCLE:     5 TIME:   0.000 TIME LEFT:  2.00D  GRAD.:     0.001 HEAT: -4.077467

     GRADIENT =  0.00065 IS LESS THAN CUTOFF =  0.05000



 -------------------------------------------------------------------------------
 PRECISE LARGE CHARGE=0 SINGLET  PM7
 HBr  PM7



     GEOMETRY OPTIMISED USING EIGENVECTOR FOLLOWING (EF).     
     SCF FIELD WAS ACHIEVED                                   


                              PM7 CALCULATION
                                                       MOPAC v22.1.0 Windows
                                                       Tue Jan 30 15:46:32 2024




          FINAL HEAT OF FORMATION =         -4.07747 KCAL/MOL =     -17.06012 KJ/MOL


          COSMO AREA              =         60.54 SQUARE ANGSTROMS
          COSMO VOLUME            =         44.81 CUBIC ANGSTROMS

          GRADIENT NORM           =          0.00065          =       0.00046 PER ATOM
          IONIZATION POTENTIAL    =         10.654940 EV
          HOMO LUMO ENERGIES (EV) =        -10.655  1.880
          NO. OF FILLED LEVELS    =          4
          MOLECULAR WEIGHT        =         80.9119         POINT GROUP:  C*v 

          MOLECULAR DIMENSIONS (Angstroms)

            Atom       Atom       Distance
            H     2   Br     1     1.45936
            H     2   Br     1     0.00000
           Br     1    H     2     0.00000


          SCF CALCULATIONS        =          6
 
          WALL-CLOCK TIME         =      0.027 SECONDS
          COMPUTATION TIME        =      0.031 SECONDS




   ATOM   CHEMICAL          X               Y               Z
  NUMBER   SYMBOL      (ANGSTROMS)     (ANGSTROMS)     (ANGSTROMS)
 
     1      Br         -5.13892425  *   0.50197000  *  -0.00000000  *
     2       H         -3.67956575  *   0.50197000  *  -0.00000000  *

                             CARTESIAN COORDINATES

   1   Br       -5.138924252     0.501970000    -0.000000000
   2    H       -3.679565747     0.501970000    -0.000000000


           Empirical Formula: H Br  =     2 atoms



      MOLECULAR POINT GROUP   :   C*v 


                  EIGENVALUES  
 -26.02034 -14.15771 -10.65494 -10.65494   1.87966 258.55236 258.66435 258.66435
 259.67979 259.67979


              NET ATOMIC CHARGES AND DIPOLE CONTRIBUTIONS

  ATOM NO.   TYPE          CHARGE      No. of ELECS.   s-Pop       p-Pop       d-Pop       
    1         Br          -0.181674        7.1817     1.93808     5.24202     0.00157
    2          H           0.181674        0.8183     0.81833
 DIPOLE           X         Y         Z       TOTAL
 POINT-CHG.     1.273    -0.000     0.000     1.273
 HYBRID         0.365     0.000    -0.000     0.365
 SUM            1.638    -0.000    -0.000     1.638


          ATOMIC ORBITAL ELECTRON POPULATIONS

     Atom    s        px        py        pz      x^2-y^2     xz        z^2       yz        xy
    1 Br   1.93808   1.24224   1.99989   1.99989   0.00101   0.00011   0.00034   0.00000   0.00011
    2  H   0.81833
 *******************************************************************************
 **                                                                           **
 **                              MOPAC v22.1.0                                **
 **                                                                           **
 *******************************************************************************
 **          Digital Object Identifier (DOI): 10.5281/zenodo.6511958          **
 **    Visit the DOI location for information on how to cite this program.    **
 *******************************************************************************

                              PM7 CALCULATION RESULTS

 *******************************************************************************
 *  CALCULATION DONE:                                Tue Jan 30 15:46:33 2024  *
 *  PM7        - The PM7 Hamiltonian to be used
 *  SINGLET    - SPIN STATE DEFINED AS A SINGLET
 *  OLDGEO     - PREVIOUS GEOMETRY TO BE USED
 *  PRECISE    - TIGHTER CRITERIA TO BE USED
 *  T=         - A TIME OF 172800.0 SECONDS REQUESTED
 *  DUMP=N     - RESTART FILE WRITTEN EVERY 7200.0 SECONDS REQUESTED
 *  THERMO     - THERMODYNAMIC QUANTITIES TO BE CALCULATED
 *******************************************************************************
OLDGEO PRECISE SINGLET PM7 THERMO
 HBr PM7

   ATOM   CHEMICAL          X               Y               Z
  NUMBER   SYMBOL      (ANGSTROMS)     (ANGSTROMS)     (ANGSTROMS)
 
     1      Br         -5.13892425  *   0.50197000  *  -0.00000000  *
     2       H         -3.67956575  *   0.50197000  *  -0.00000000  *
 


          CARTESIAN COORDINATES 

    NO.       ATOM           X           Y           Z

     1        Br         -5.1389      0.5020     -0.0000
     2         H         -3.6796      0.5020     -0.0000

 General Reference for PM7:
 "Optimization of Parameters for Semiempirical Methods VI: More Modifications to the 
 NDDO Approximations and Re-optimization of Parameters", J. J. P. Stewart, J. Mol. Mod., 1:32, 19 (2013)
 https://link.springer.com/article/10.1007/s00894-012-1667-x

           Empirical Formula: H Br  =     2 atoms



      MOLECULAR POINT GROUP   :   C*v 


 SINGLET STATE CALCULATION


      RHF CALCULATION, NO. OF DOUBLY OCCUPIED LEVELS = 4



          HEAT OF FORMATION =      -4.077467 KCALS/MOLE


          CARTESIAN COORDINATE DERIVATIVES

   NUMBER  ATOM         X            Y            Z

     1      Br     -0.002878     0.000000     0.000000
     2       H      0.002878     0.000000     0.000000
 


          GRADIENT NORM =   0.00407

          MOLECULAR WEIGHT =   80.91



          ROTATIONAL CONSTANTS IN CM(-1)

          A =    0.00000000   B =    7.95241330   C =    7.95241330



           PRINCIPAL MOMENTS OF INERTIA IN UNITS OF 10**(-40)*GRAM-CM**2

          A =        0.0000   B =        3.5200   C =        3.5200


          ORIENTATION OF MOLECULE IN FORCE CALCULATION

    NO.       ATOM         X         Y         Z

     1         Br      -0.0182    0.0000    0.0000
     2          H       1.4412    0.0000   -0.0000


    FIRST DERIVATIVES WILL BE USED IN THE CALCULATION OF SECOND DERIVATIVES

          ESTIMATED TIME TO COMPLETE CALCULATION =        0.00 SECONDS

    FOR POINT-GROUP C*v  THERE ARE  84 UNIQUE SYMMETRY FUNCTIONS.

 STEP:   1 TIME =     0.00 SECS, INTEGRAL =      0.00 TIME LEFT: 172800.00
 STEP:   2 TIME =     0.02 SECS, INTEGRAL =      0.02 TIME LEFT: 172799.98
 STEP:   3 TIME =     0.03 SECS, INTEGRAL =      0.05 TIME LEFT: 172799.95
 STEP:   4 TIME =     0.02 SECS, INTEGRAL =      0.07 TIME LEFT: 172799.93
 STEP:   5 TIME =     0.01 SECS, INTEGRAL =      0.08 TIME LEFT: 172799.92
 STEP:   6 TIME =     0.02 SECS, INTEGRAL =      0.10 TIME LEFT: 172799.90

(To convert to Hartree/Bohr^2, multiply by (10^(-21) x N x a0^2)/(4.184 x 627.51) =  0.0642)


           FORCE MATRIX IN MILLIDYNES/ANGSTROM


                 Br  1       H  2
 ------------------------------
    Br    1   3.797236
     H    2   3.796915   3.796595


          HEAT OF FORMATION =      -4.077467 KCALS/MOLE

          ZERO POINT ENERGY       3.638 KCAL/MOL


           NORMAL COORDINATE ANALYSIS (Total motion = 1 Angstrom)


   Root No.       1

                 1 Sig 

                2544.5
  
           1   -0.0125
           2    0.0000
           3    0.0000
           4    0.9875
           5   -0.0000
           6   -0.0000


           MASS-WEIGHTED COORDINATE ANALYSIS (NORMAL COORDINATES)


   Root No.       1

                 1 Sig 

                2544.5
  
           1   -0.1116
           2    0.0000
           3    0.0000
           4    0.9938
           5   -0.0000
           6   -0.0000


          DESCRIPTION OF VIBRATIONS


 VIBRATION          1    1Sig        ATOM PAIR     ENERGY CONTRIBUTION    RADIAL
 FREQUENCY          2544.50         Br1 -- H 2        +100.0% (100.0%)    100.0%
 TRANSITION DIPOLE   0.7519
 TRAVEL (Ang.)       0.1632
 REDUCED MASS        0.9953
 EFFECTIVE MASS      1.2161
 FORCE CONSTANT      3.7969

      SYMMETRY NUMBER FOR POINT-GROUP C*v =  1


          SYSTEM IS A GROUND STATE



 HBr PM7


          MOLECULE IS LINEAR

          THERE ARE  1 GENUINE VIBRATIONS IN THIS SYSTEM
          THIS THERMODYNAMICS CALCULATION IS LIMITED TO
          MOLECULES WHICH HAVE NO INTERNAL ROTATIONS




                    CALCULATED THERMODYNAMIC PROPERTIES
                                          *
   TEMP. (K)   PARTITION FUNCTION   H.O.F.    ENTHALPY  HEAT CAPACITY ENTROPY
                                   KCAL/MOL   CAL/MOLE    CAL/K/MOL  CAL/K/MOL


 298.00  VIB.     0.1000D+01                     0.0336     0.0014     0.0001
         ROT.     0.2604D+02                   592.1869     1.9872     8.4651
         INT.     0.2605D+02                   592.2205     1.9886     8.4653
         TRA.     0.7036D+27                  1480.4672     4.9680    39.0844
         TOT.                       -4.077    2072.6877     6.9566    47.5497

 200.00  VIB.     0.1000D+01                     0.0001     0.0000     0.0000
         ROT.     0.1748D+02                   397.4409     1.9872     7.6727
         INT.     0.1748D+02                   397.4409     1.9872     7.6727
         TRA.     0.3869D+27                   993.6021     4.9680    37.1033
         TOT.                       -4.759    1391.0431     6.9552    44.7760

 210.00  VIB.     0.1000D+01                     0.0002     0.0000     0.0000
         ROT.     0.1835D+02                   417.3129     1.9872     7.7696
         INT.     0.1835D+02                   417.3131     1.9872     7.7696
         TRA.     0.4162D+27                  1043.2822     4.9680    37.3457
         TOT.                       -4.690    1460.5953     6.9552    45.1153

 220.00  VIB.     0.1000D+01                     0.0004     0.0000     0.0000
         ROT.     0.1923D+02                   437.1849     1.9872     7.8621
         INT.     0.1923D+02                   437.1854     1.9872     7.8621
         TRA.     0.4463D+27                  1092.9623     4.9680    37.5768
         TOT.                       -4.620    1530.1477     6.9552    45.4389

 230.00  VIB.     0.1000D+01                     0.0009     0.0001     0.0000
         ROT.     0.2010D+02                   457.0570     1.9872     7.9504
         INT.     0.2010D+02                   457.0579     1.9873     7.9504
         TRA.     0.4771D+27                  1142.6424     4.9680    37.7976
         TOT.                       -4.550    1599.7003     6.9553    45.7480

 240.00  VIB.     0.1000D+01                     0.0017     0.0001     0.0000
         ROT.     0.2098D+02                   476.9290     1.9872     8.0350
         INT.     0.2098D+02                   476.9307     1.9873     8.0350
         TRA.     0.5086D+27                  1192.3226     4.9680    38.0090
         TOT.                       -4.481    1669.2533     6.9553    46.0441

 250.00  VIB.     0.1000D+01                     0.0032     0.0002     0.0000
         ROT.     0.2185D+02                   496.8011     1.9872     8.1161
         INT.     0.2185D+02                   496.8042     1.9874     8.1161
         TRA.     0.5407D+27                  1242.0027     4.9680    38.2119
         TOT.                       -4.411    1738.8069     6.9554    46.3280

 260.00  VIB.     0.1000D+01                     0.0056     0.0003     0.0000
         ROT.     0.2272D+02                   516.6731     1.9872     8.1941
         INT.     0.2272D+02                   516.6787     1.9875     8.1941
         TRA.     0.5734D+27                  1291.6828     4.9680    38.4067
         TOT.                       -4.342    1808.3615     6.9555    46.6008

 270.00  VIB.     0.1000D+01                     0.0094     0.0005     0.0000
         ROT.     0.2360D+02                   536.5451     1.9872     8.2691
         INT.     0.2360D+02                   536.5546     1.9877     8.2691
         TRA.     0.6068D+27                  1341.3629     4.9680    38.5942
         TOT.                       -4.272    1877.9174     6.9557    46.8633

 280.00  VIB.     0.1000D+01                     0.0153     0.0007     0.0001
         ROT.     0.2447D+02                   556.4172     1.9872     8.3413
         INT.     0.2447D+02                   556.4324     1.9879     8.3414
         TRA.     0.6408D+27                  1391.0430     4.9680    38.7749
         TOT.                       -4.203    1947.4754     6.9559    47.1163

 290.00  VIB.     0.1000D+01                     0.0239     0.0010     0.0001
         ROT.     0.2535D+02                   576.2892     1.9872     8.4111
         INT.     0.2535D+02                   576.3132     1.9882     8.4112
         TRA.     0.6755D+27                  1440.7231     4.9680    38.9492
         TOT.                       -4.133    2017.0363     6.9563    47.3604

 300.00  VIB.     0.1000D+01                     0.0365     0.0015     0.0001
         ROT.     0.2622D+02                   596.1613     1.9872     8.4784
         INT.     0.2622D+02                   596.1978     1.9887     8.4786
         TRA.     0.7107D+27                  1490.4032     4.9680    39.1176
         TOT.                       -4.064    2086.6010     6.9567    47.5962

 310.00  VIB.     0.1000D+01                     0.0541     0.0021     0.0002
         ROT.     0.2709D+02                   616.0333     1.9872     8.5436
         INT.     0.2709D+02                   616.0874     1.9893     8.5438
         TRA.     0.7466D+27                  1540.0833     4.9680    39.2805
         TOT.                       -3.994    2156.1707     6.9573    47.8243

 320.00  VIB.     0.1000D+01                     0.0782     0.0028     0.0003
         ROT.     0.2797D+02                   635.9054     1.9872     8.6067
         INT.     0.2797D+02                   635.9836     1.9900     8.6070
         TRA.     0.7830D+27                  1589.7634     4.9680    39.4383
         TOT.                       -3.924    2225.7470     6.9580    48.0452

 330.00  VIB.     0.1000D+01                     0.1106     0.0037     0.0004
         ROT.     0.2884D+02                   655.7774     1.9872     8.6678
         INT.     0.2884D+02                   655.8880     1.9909     8.6682
         TRA.     0.8200D+27                  1639.4435     4.9680    39.5911
         TOT.                       -3.855    2295.3315     6.9589    48.2593

 340.00  VIB.     0.1000D+01                     0.1533     0.0049     0.0005
         ROT.     0.2972D+02                   675.6494     1.9872     8.7272
         INT.     0.2972D+02                   675.8028     1.9921     8.7277
         TRA.     0.8575D+27                  1689.1236     4.9680    39.7395
         TOT.                       -3.785    2364.9264     6.9601    48.4671

 350.00  VIB.     0.1000D+01                     0.2085     0.0062     0.0007
         ROT.     0.3059D+02                   695.5215     1.9872     8.7848
         INT.     0.3059D+02                   695.7300     1.9934     8.7854
         TRA.     0.8956D+27                  1738.8037     4.9680    39.8835
         TOT.                       -3.716    2434.5337     6.9614    48.6689

 360.00  VIB.     0.1000D+01                     0.2788     0.0079     0.0009
         ROT.     0.3146D+02                   715.3935     1.9872     8.8407
         INT.     0.3146D+02                   715.6724     1.9951     8.8416
         TRA.     0.9343D+27                  1788.4838     4.9680    40.0234
         TOT.                       -3.646    2504.1562     6.9631    48.8650

 370.00  VIB.     0.1000D+01                     0.3671     0.0098     0.0011
         ROT.     0.3234D+02                   735.2656     1.9872     8.8952
         INT.     0.3234D+02                   735.6326     1.9970     8.8963
         TRA.     0.9735D+27                  1838.1639     4.9680    40.1595
         TOT.                       -3.576    2573.7966     6.9650    49.0558

 380.00  VIB.     0.1000D+01                     0.4762     0.0121     0.0014
         ROT.     0.3321D+02                   755.1376     1.9872     8.9482
         INT.     0.3321D+02                   755.6138     1.9993     8.9496
         TRA.     0.1013D+28                  1887.8440     4.9680    40.2920
         TOT.                       -3.507    2643.4579     6.9673    49.2416

 390.00  VIB.     0.1000D+01                     0.6097     0.0147     0.0017
         ROT.     0.3409D+02                   775.0097     1.9872     8.9998
         INT.     0.3409D+02                   775.6193     2.0019     9.0015
         TRA.     0.1053D+28                  1937.5242     4.9680    40.4211
         TOT.                       -3.437    2713.1435     6.9699    49.4226

 400.00  VIB.     0.1000D+01                     0.7710     0.0176     0.0021
         ROT.     0.3496D+02                   794.8817     1.9872     9.0501
         INT.     0.3496D+02                   795.6527     2.0048     9.0523
         TRA.     0.1094D+28                  1987.2043     4.9680    40.5469
         TOT.                       -3.367    2782.8569     6.9729    49.5991

   *: NOTE: HEATS OF FORMATION ARE RELATIVE TO THE
            ELEMENTS IN THEIR STANDARD STATE AT 298K
              (=  Standard Enthalpy of Formation).

            Hvib:  Zero-point energy is not included.
                   frequencies of less than zero cm-1 are not included.
            Hrot = (3/2)RT
            Htra = (3/2)RT + pV = (5/2)RT

            Heat capacity is Cp, not Cv

          For more information, see: HTTP://OpenMOPAC.net/Manual/thermochemistry.html


           FORCE CONSTANT IN CARTESIAN COORDINATES (Millidynes/A)

    ATOM   CHEMICAL       X               Y               Z
   NUMBER   SYMBOL  FORCE CONSTANT  FORCE CONSTANT  FORCE CONSTANT

      1      Br        3.796903        0.006788        0.006788
      2       H        3.796903        0.006789        0.006789

 **********************
 *                    *
 * JOB ENDED NORMALLY *
 *                    *
 **********************



 TOTAL JOB TIME:             0.21 SECONDS

 == MOPAC DONE ==
