 *******************************************************************************
 **                                                                           **
 **                              MOPAC v22.1.0                                **
 **                                                                           **
 *******************************************************************************
 **          Digital Object Identifier (DOI): 10.5281/zenodo.6511958          **
 **    Visit the DOI location for information on how to cite this program.    **
 *******************************************************************************

                              PM7 CALCULATION RESULTS

 *******************************************************************************
 *  CALCULATION DONE:                                Wed Nov 22 12:00:27 2023  *
 *  PM7        - The PM7 Hamiltonian to be used
 *  SINGLET    - SPIN STATE DEFINED AS A SINGLET
 *
 *
 *
 *                 CHARGE ON SYSTEM = 0
 *
 *
 *
 *  T=         - A TIME OF 172800.0 SECONDS REQUESTED
 *  DUMP=N     - RESTART FILE WRITTEN EVERY 7200.0 SECONDS REQUESTED
 *  AUX        - OUTPUT AUXILIARY INFORMATION
 *  LARGE      - EXPANDED OUTPUT TO BE PRINTED
 *  GRAPH      - GENERATE FILE FOR GRAPHICS
 *  ALLVEC     - PRINT ALL EIGENVECTORS
 *******************************************************************************
 AUX LARGE CHARGE=0 SINGLET GRAPHF ALLVEC PM7
 phenanthrene

   ATOM   CHEMICAL          X               Y               Z
  NUMBER   SYMBOL      (ANGSTROMS)     (ANGSTROMS)     (ANGSTROMS)
 
     1       C          3.16106000  *   0.66923000  *   0.31176000  *
     2       C          3.49469000  *  -0.63793000  *  -0.03133000  *
     3       C          2.49208000  *  -1.55943000  *  -0.32375000  *
     4       C          1.14096000  *  -1.17946000  *  -0.27525000  *
     5       C          0.77991000  *   0.15349000  *   0.07374000  *
     6       C          1.82303000  *   1.06701000  *   0.36565000  *
     7       C         -0.60360000  *   0.50973000  *   0.11444000  *
     8       C         -1.58168000  *  -0.47842000  *  -0.19515000  *
     9       C         -1.19121000  *  -1.77827000  *  -0.53390000  *
    10       C          0.15370000  *  -2.12457000  *  -0.57348000  *
    11       C         -1.05849000  *   1.80898000  *   0.45037000  *
    12       C         -2.42303000  *   2.10708000  *   0.47598000  *
    13       C         -3.36436000  *   1.12820000  *   0.17044000  *
    14       C         -2.94876000  *  -0.15848000  *  -0.16368000  *
    15       H          3.94474000  *   1.38107000  *   0.53803000  *
    16       H          4.53391000  *  -0.93813000  *  -0.07081000  *
    17       H          2.77344000  *  -2.57203000  *  -0.58859000  *
    18       H          1.64053000  *   2.09298000  *   0.63817000  *
    19       H         -1.93186000  *  -2.53356000  *  -0.77024000  *
    20       H          0.42361000  *  -3.14006000  *  -0.83956000  *
    21       H         -0.38885000  *   2.61554000  *   0.69780000  *
    22       H         -2.75207000  *   3.10544000  *   0.73495000  *
    23       H         -4.41981000  *   1.36734000  *   0.19259000  *
    24       H         -3.69795000  *  -0.90574000  *  -0.39817000  *
 


          CARTESIAN COORDINATES 

    NO.       ATOM           X           Y           Z

     1         C          3.1611      0.6692      0.3118
     2         C          3.4947     -0.6379     -0.0313
     3         C          2.4921     -1.5594     -0.3238
     4         C          1.1410     -1.1795     -0.2752
     5         C          0.7799      0.1535      0.0737
     6         C          1.8230      1.0670      0.3657
     7         C         -0.6036      0.5097      0.1144
     8         C         -1.5817     -0.4784     -0.1951
     9         C         -1.1912     -1.7783     -0.5339
    10         C          0.1537     -2.1246     -0.5735
    11         C         -1.0585      1.8090      0.4504
    12         C         -2.4230      2.1071      0.4760
    13         C         -3.3644      1.1282      0.1704
    14         C         -2.9488     -0.1585     -0.1637
    15         H          3.9447      1.3811      0.5380
    16         H          4.5339     -0.9381     -0.0708
    17         H          2.7734     -2.5720     -0.5886
    18         H          1.6405      2.0930      0.6382
    19         H         -1.9319     -2.5336     -0.7702
    20         H          0.4236     -3.1401     -0.8396
    21         H         -0.3889      2.6155      0.6978
    22         H         -2.7521      3.1054      0.7350
    23         H         -4.4198      1.3673      0.1926
    24         H         -3.6980     -0.9057     -0.3982

 General Reference for PM7:
 "Optimization of Parameters for Semiempirical Methods VI: More Modifications to the 
 NDDO Approximations and Re-optimization of Parameters", J. J. P. Stewart, J. Mol. Mod., 1:32, 19 (2013)
 https://link.springer.com/article/10.1007/s00894-012-1667-x

           Empirical Formula: C14 H10  =    24 atoms



      MOLECULAR POINT GROUP   :   C2v 


 SINGLET STATE CALCULATION


      RHF CALCULATION, NO. OF DOUBLY OCCUPIED LEVELS = 33


          Geometry optimization using EF

          DIAGONAL MATRIX USED AS START HESSIAN

 CYCLE:     1 TIME:   0.633 TIME LEFT:  2.00D  GRAD.:   125.303 HEAT:  58.51177
 CYCLE:     2 TIME:   0.164 TIME LEFT:  2.00D  GRAD.:    25.066 HEAT:  55.55052
 CYCLE:     3 TIME:   0.191 TIME LEFT:  2.00D  GRAD.:    23.545 HEAT:  55.35498
 CYCLE:     4 TIME:   0.039 TIME LEFT:  2.00D  GRAD.:    21.276 HEAT:  55.12574
 CYCLE:     5 TIME:   0.039 TIME LEFT:  2.00D  GRAD.:    25.343 HEAT:  55.01968
 CYCLE:     6 TIME:   0.043 TIME LEFT:  2.00D  GRAD.:    19.325 HEAT:  54.90087
 CYCLE:     7 TIME:   0.074 TIME LEFT:  2.00D  GRAD.:    11.890 HEAT:  54.80205
 CYCLE:     8 TIME:   0.070 TIME LEFT:  2.00D  GRAD.:    10.709 HEAT:  54.77935
 CYCLE:     9 TIME:   0.043 TIME LEFT:  2.00D  GRAD.:     9.128 HEAT:  54.75042
 CYCLE:    10 TIME:   0.039 TIME LEFT:  2.00D  GRAD.:    12.380 HEAT:  54.74865
 CYCLE:    11 TIME:   0.043 TIME LEFT:  2.00D  GRAD.:     7.052 HEAT:  54.71366
 CYCLE:    12 TIME:   0.078 TIME LEFT:  2.00D  GRAD.:     5.560 HEAT:  54.69955
 CYCLE:    13 TIME:   0.039 TIME LEFT:  2.00D  GRAD.:     5.327 HEAT:  54.68399
 CYCLE:    14 TIME:   0.039 TIME LEFT:  2.00D  GRAD.:     4.492 HEAT:  54.65829
 CYCLE:    15 TIME:   0.039 TIME LEFT:  2.00D  GRAD.:     6.417 HEAT:  54.62892
 CYCLE:    16 TIME:   0.078 TIME LEFT:  2.00D  GRAD.:     6.687 HEAT:  54.61033
 CYCLE:    17 TIME:   0.035 TIME LEFT:  2.00D  GRAD.:     7.520 HEAT:  54.60844
 CYCLE:    18 TIME:   0.039 TIME LEFT:  2.00D  GRAD.:     3.817 HEAT:  54.59431
 CYCLE:    19 TIME:   0.039 TIME LEFT:  2.00D  GRAD.:     3.870 HEAT:  54.59189
 CYCLE:    20 TIME:   0.031 TIME LEFT:  2.00D  GRAD.:     3.013 HEAT:  54.58731
 CYCLE:    21 TIME:   0.039 TIME LEFT:  2.00D  GRAD.:     2.618 HEAT:  54.58396
 CYCLE:    22 TIME:   0.043 TIME LEFT:  2.00D  GRAD.:     1.917 HEAT:  54.58054
 CYCLE:    23 TIME:   0.039 TIME LEFT:  2.00D  GRAD.:     2.317 HEAT:  54.57901
 CYCLE:    24 TIME:   0.039 TIME LEFT:  2.00D  GRAD.:     2.192 HEAT:  54.57813
 CYCLE:    25 TIME:   0.039 TIME LEFT:  2.00D  GRAD.:     1.497 HEAT:  54.57726
 CYCLE:    26 TIME:   0.039 TIME LEFT:  2.00D  GRAD.:     0.946 HEAT:  54.57660

     GRADIENT =  0.94593 IS LESS THAN CUTOFF =  1.00000



 -------------------------------------------------------------------------------
 AUX LARGE CHARGE=0 SINGLET GRAPHF ALLVEC PM7
 phenanthrene



     GEOMETRY OPTIMISED USING EIGENVECTOR FOLLOWING (EF).     
     SCF FIELD WAS ACHIEVED                                   


                              PM7 CALCULATION
                                                       MOPAC v22.1.0 Windows
                                                       Wed Nov 22 12:00:29 2023




          FINAL HEAT OF FORMATION =         54.57660 KCAL/MOL =     228.34848 KJ/MOL


          COSMO AREA              =        209.49 SQUARE ANGSTROMS
          COSMO VOLUME            =        220.30 CUBIC ANGSTROMS

          GRADIENT NORM           =          0.94593          =       0.19309 PER ATOM
          IONIZATION POTENTIAL    =          8.828307 EV
          HOMO LUMO ENERGIES (EV) =         -8.828 -0.649
          NO. OF FILLED LEVELS    =         33
          MOLECULAR WEIGHT        =        178.2330         POINT GROUP:  C2v 

          MOLECULAR DIMENSIONS (Angstroms)

            Atom       Atom       Distance
            H    23    H    16     9.24947
            H    19    H    18     5.55078
            H    19    H    16     0.01006


          SCF CALCULATIONS        =         34
 
          WALL-CLOCK TIME         =      2.152 SECONDS
          COMPUTATION TIME        =      2.406 SECONDS




   ATOM   CHEMICAL          X               Y               Z
  NUMBER   SYMBOL      (ANGSTROMS)     (ANGSTROMS)     (ANGSTROMS)
 
     1       C          3.13630941  *   0.69148554  *   0.31739716  *
     2       C          3.49166969  *  -0.62578143  *  -0.02482610  *
     3       C          2.51008196  *  -1.54812461  *  -0.31730974  *
     4       C          1.14720599  *  -1.17986554  *  -0.27606152  *
     5       C          0.78519144  *   0.13718045  *   0.06706698  *
     6       C          1.80912424  *   1.06455657  *   0.36166645  *
     7       C         -0.61645202  *   0.49831897  *   0.10824816  *
     8       C         -1.58731552  *  -0.47570525  *  -0.19601697  *
     9       C         -1.18213768  *  -1.81064966  *  -0.54466584  *
    10       C          0.12988865  *  -2.14837455  *  -0.58278354  *
    11       C         -1.04784129  *   1.80008362  *   0.44678716  *
    12       C         -2.39042588  *   2.11459989  *   0.48052983  *
    13       C         -3.35574105  *   1.13733189  *   0.17707289  *
    14       C         -2.95856123  *  -0.13957844  *  -0.15742590  *
    15       H          3.91799188  *   1.41345002  *   0.54639111  *
    16       H          4.54232682  *  -0.90662739  *  -0.05510400  *
    17       H          2.77348236  *  -2.57038588  *  -0.58304743  *
    18       H          1.54736599  *   2.08809133  *   0.62833877  *
    19       H         -1.96059984  *  -2.53652644  *  -0.77515511  *
    20       H          0.44764432  *  -3.15695109  *  -0.84555143  *
    21       H         -0.31004438  *   2.56607283  *   0.68319080  *
    22       H         -2.71335617  *   3.11998379  *   0.74349022  *
    23       H         -4.41111751  *   1.39972730  *   0.20797205  *
    24       H         -3.69660022  *  -0.90365542  *  -0.39508681  *

                             CARTESIAN COORDINATES

   1    C        3.136309407     0.691485540     0.317397159
   2    C        3.491669690    -0.625781431    -0.024826104
   3    C        2.510081958    -1.548124610    -0.317309736
   4    C        1.147205994    -1.179865543    -0.276061519
   5    C        0.785191436     0.137180452     0.067066980
   6    C        1.809124240     1.064556573     0.361666449
   7    C       -0.616452021     0.498318973     0.108248164
   8    C       -1.587315519    -0.475705253    -0.196016965
   9    C       -1.182137682    -1.810649659    -0.544665836
  10    C        0.129888647    -2.148374545    -0.582783544
  11    C       -1.047841291     1.800083624     0.446787158
  12    C       -2.390425884     2.114599895     0.480529829
  13    C       -3.355741047     1.137331890     0.177072891
  14    C       -2.958561228    -0.139578442    -0.157425903
  15    H        3.917991880     1.413450018     0.546391115
  16    H        4.542326821    -0.906627393    -0.055103996
  17    H        2.773482365    -2.570385878    -0.583047433
  18    H        1.547365986     2.088091325     0.628338774
  19    H       -1.960599835    -2.536526436    -0.775155108
  20    H        0.447644317    -3.156951090    -0.845551427
  21    H       -0.310044376     2.566072833     0.683190802
  22    H       -2.713356171     3.119983794     0.743490219
  23    H       -4.411117513     1.399727304     0.207972055
  24    H       -3.696600217    -0.903655421    -0.395086812


           Empirical Formula: C14 H10  =    24 atoms



      MOLECULAR POINT GROUP   :   C2v 


                EIGENVECTORS  


   Root No.       1         2         3         4         5         6         7         8

                 1 a1      1 b2      2 a1      3 a1      2 b2      4 a1      3 b2      5 a1  

               -31.295   -30.307   -28.732   -27.125   -26.125   -24.762   -24.745   -22.078
  
  S   C    1    0.1722   -0.2728   -0.2691   -0.0589    0.3065    0.2943    0.0468    0.1053
  Px  C    1   -0.0618    0.0664    0.0442   -0.0785   -0.0418   -0.0172    0.1479    0.1749
  Py  C    1   -0.0429    0.0700    0.0397    0.0954    0.0299    0.0631   -0.1273   -0.1347
  Pz  C    1   -0.0143    0.0219    0.0127    0.0225    0.0063    0.0163   -0.0282   -0.0291
  S   C    2    0.1676   -0.2829   -0.2296   -0.2701    0.0655    0.0064    0.3608    0.2209
  Px  C    2   -0.0740    0.0995    0.0436    0.0432    0.0363    0.0508    0.0234    0.1060
  Py  C    2    0.0141   -0.0225   -0.0486    0.0500    0.1422    0.1502   -0.0539    0.1201
  Pz  C    2    0.0007   -0.0019   -0.0113    0.0154    0.0401    0.0429   -0.0136    0.0372
  S   C    3    0.2034   -0.2859   -0.0826   -0.2993   -0.2511   -0.2157    0.1831   -0.2134
  Px  C    3   -0.0500    0.0212   -0.0868   -0.0330    0.1084    0.0251    0.1860    0.1118
  Py  C    3    0.0654   -0.0928   -0.0724   -0.0261    0.0439   -0.0137    0.0286    0.1003
  Pz  C    3    0.0156   -0.0243   -0.0234   -0.0085    0.0166   -0.0027    0.0158    0.0321
  S   C    4    0.3306   -0.2562    0.1746   -0.0850   -0.3065   -0.1416   -0.1898   -0.0326
  Px  C    4   -0.0258   -0.0895   -0.1614   -0.1049   -0.0386   -0.1166    0.0643   -0.1844
  Py  C    4    0.0567   -0.0401   -0.0716    0.1339    0.1006   -0.0969   -0.0667    0.1612
  Pz  C    4    0.0144   -0.0147   -0.0263    0.0319    0.0257   -0.0314   -0.0153    0.0360
  S   C    5    0.3622   -0.1840    0.0174    0.3329   -0.0070   -0.1805   -0.2315    0.1416
  Px  C    5   -0.0138   -0.1416   -0.1085   -0.0841    0.0291    0.0627   -0.1450   -0.1700
  Py  C    5   -0.0402    0.0424   -0.1156    0.1292    0.1082    0.0613    0.0256   -0.1353
  Pz  C    5   -0.0114    0.0057   -0.0360    0.0317    0.0306    0.0192    0.0011   -0.0438
  S   C    6    0.2255   -0.2378   -0.2186    0.2322    0.2442    0.1700   -0.2549   -0.2347
  Px  C    6   -0.0231   -0.0521   -0.0647   -0.1298    0.1016    0.1514    0.0478    0.0149
  Py  C    6   -0.0785    0.0903    0.0263    0.0014    0.0029    0.0571    0.0399   -0.0880
  Pz  C    6   -0.0222    0.0223    0.0043   -0.0050    0.0052    0.0219    0.0129   -0.0233
  S   C    7    0.3617    0.1849    0.0172    0.3327    0.0067   -0.1874    0.2261    0.1412
  Px  C    7   -0.0076   -0.1445    0.0371    0.1377   -0.0286   -0.0199   -0.1397    0.0810
  Py  C    7   -0.0417    0.0312   -0.1531    0.0720   -0.1083    0.0823    0.0502   -0.2001
  Pz  C    7   -0.0115    0.0028   -0.0403    0.0252   -0.0307    0.0216    0.0081   -0.0513
  S   C    8    0.3299    0.2569    0.1744   -0.0849    0.3066   -0.1475    0.1853   -0.0323
  Px  C    8    0.0508   -0.0579    0.1050    0.1579   -0.0839    0.0508    0.0907    0.2409
  Py  C    8    0.0368    0.0781   -0.1402    0.0661   -0.0692   -0.1415    0.0229    0.0511
  Pz  C    8    0.0122    0.0191   -0.0341    0.0242   -0.0222   -0.0367    0.0097    0.0235
  S   C    9    0.2280    0.0642    0.3897   -0.1272    0.1782    0.3177    0.0875   -0.0481
  Px  C    9    0.0510   -0.0448    0.1093    0.0175   -0.1234    0.1225   -0.0425    0.1020
  Py  C    9    0.0735    0.0471    0.0283    0.0114    0.0877   -0.1265    0.0536    0.0564
  Pz  C    9    0.0222    0.0111    0.0123    0.0038    0.0190   -0.0295    0.0129    0.0195
  S   C   10    0.2282   -0.0636    0.3897   -0.1273   -0.1779    0.3201   -0.0777   -0.0486
  Px  C   10   -0.0077   -0.0626   -0.0812   -0.0097   -0.1514   -0.1678   -0.0689   -0.0613
  Py  C   10    0.0887   -0.0193    0.0775    0.0184   -0.0171   -0.0504   -0.0279    0.0984
  Pz  C   10    0.0239   -0.0079    0.0178    0.0046   -0.0110   -0.0207   -0.0104    0.0242
  S   C   11    0.2250    0.2383   -0.2187    0.2318   -0.2443    0.1623    0.2601   -0.2348
  Px  C   11   -0.0188   -0.0903    0.0695    0.1140    0.0870   -0.1042    0.0189   -0.0571
  Py  C   11   -0.0794   -0.0538   -0.0083   -0.0614   -0.0515    0.1245   -0.0541   -0.0692
  Pz  C   11   -0.0224   -0.0182    0.0004   -0.0123   -0.0107    0.0299   -0.0141   -0.0210
  S   C   12    0.1716    0.2732   -0.2691   -0.0593   -0.3063    0.2957   -0.0381    0.1059
  Px  C   12    0.0324    0.0232   -0.0188    0.1158   -0.0514    0.0405    0.1937   -0.2196
  Py  C   12   -0.0669   -0.0932    0.0559    0.0453   -0.0059    0.0455    0.0411   -0.0328
  Pz  C   12   -0.0170   -0.0245    0.0145    0.0168   -0.0037    0.0141    0.0187   -0.0173
  S   C   13    0.1670    0.2831   -0.2296   -0.2702   -0.0652    0.0173   -0.3606    0.2207
  Px  C   13    0.0713    0.0981   -0.0622   -0.0129   -0.0391    0.0289    0.0481   -0.0326
  Py  C   13   -0.0233   -0.0283   -0.0214    0.0642   -0.1414    0.1543    0.0402    0.1562
  Pz  C   13   -0.0037   -0.0040   -0.0082    0.0171   -0.0401    0.0433    0.0130    0.0414
  S   C   14    0.2028    0.2862   -0.0826   -0.2991    0.2514   -0.2103   -0.1895   -0.2137
  Px  C   14    0.0760    0.0648    0.0396    0.0158    0.0727   -0.0332    0.1469   -0.0473
  Py  C   14    0.0327    0.0707   -0.1049   -0.0387   -0.0905    0.0037   -0.1145    0.1410
  Pz  C   14    0.0119    0.0219   -0.0272   -0.0100   -0.0219   -0.0003   -0.0257    0.0368
  S   H   15    0.0463   -0.0807   -0.0953   -0.0211    0.1368    0.1528    0.0305    0.0663
  S   H   16    0.0444   -0.0842   -0.0795   -0.1108    0.0287    0.0084    0.1861    0.1420
  S   H   17    0.0610   -0.0873   -0.0107   -0.1297   -0.1266   -0.0866    0.0920   -0.1427
  S   H   18    0.0766   -0.0587   -0.0855    0.1309    0.0962    0.0953   -0.0947   -0.1728
  S   H   19    0.0668    0.0303    0.1315   -0.0713    0.0965    0.1460    0.0345   -0.0894
  S   H   20    0.0668   -0.0301    0.1314   -0.0714   -0.0962    0.1469   -0.0300   -0.0897
  S   H   21    0.0765    0.0590   -0.0855    0.1309   -0.0963    0.0924    0.0977   -0.1728
  S   H   22    0.0462    0.0808   -0.0953   -0.0213   -0.1367    0.1538   -0.0260    0.0668
  S   H   23    0.0443    0.0843   -0.0795   -0.1108   -0.0286    0.0140   -0.1857    0.1420
  S   H   24    0.0608    0.0874   -0.0108   -0.1296    0.1267   -0.0839   -0.0945   -0.1427


   Root No.       9        10        11        12        13        14        15        16

                 4 b2      6 a1      5 b2      7 a1      6 b2      8 a1      7 b2      9 a1  

               -21.547   -21.312   -19.991   -18.179   -17.833   -16.760   -16.115   -15.948
  
  S   C    1   -0.2575    0.1796   -0.0283    0.0598   -0.1480   -0.0909   -0.0064   -0.1266
  Px  C    1   -0.0985   -0.0340   -0.1643    0.1695   -0.0219   -0.2251   -0.2220    0.0305
  Py  C    1   -0.0784    0.0862    0.1789    0.1791   -0.0683    0.0637   -0.2388   -0.2004
  Pz  C    1   -0.0255    0.0219    0.0415    0.0559   -0.0194    0.0076   -0.0743   -0.0531
  S   C    2    0.0267   -0.2043   -0.1194    0.0141    0.1698    0.0471    0.0298    0.1374
  Px  C    2   -0.0756   -0.0624   -0.0784    0.1912    0.2015   -0.0684   -0.2859    0.1440
  Py  C    2   -0.1619    0.1576   -0.1770   -0.0576   -0.1042   -0.2158    0.0971    0.0994
  Pz  C    2   -0.0472    0.0400   -0.0514   -0.0074   -0.0195   -0.0615    0.0139    0.0331
  S   C    3    0.0993   -0.0768    0.2418    0.0640   -0.1288    0.0032   -0.0342   -0.1415
  Px  C    3    0.1030   -0.2374    0.0556    0.0324    0.1959    0.2198    0.0093   -0.1501
  Py  C    3    0.0798    0.0216   -0.1577   -0.2030   -0.0355    0.0944    0.1891    0.1364
  Pz  C    3    0.0261   -0.0044   -0.0404   -0.0536   -0.0013    0.0351    0.0516    0.0303
  S   C    4   -0.0870    0.2445   -0.1530    0.0530   -0.0788   -0.0076   -0.1215    0.1358
  Px  C    4    0.1116    0.0255    0.1215   -0.1204   -0.2160   -0.1723    0.0496   -0.0099
  Py  C    4    0.2295    0.0182   -0.1668   -0.1398   -0.0458    0.1015   -0.1048   -0.1666
  Pz  C    4    0.0672    0.0060   -0.0401   -0.0430   -0.0220    0.0203   -0.0266   -0.0461
  S   C    5    0.1843   -0.1056   -0.1479   -0.0044    0.1114   -0.1223   -0.1088   -0.1292
  Px  C    5    0.1306    0.1007   -0.0433   -0.2342    0.0721    0.0775   -0.0157    0.1965
  Py  C    5    0.0212   -0.2392    0.1715    0.0171    0.1161   -0.1696    0.1079    0.0871
  Pz  C    5    0.0111   -0.0609    0.0449   -0.0051    0.0343   -0.0431    0.0287    0.0314
  S   C    6    0.0520   -0.0371    0.2328    0.0071    0.1659    0.1079    0.0044    0.0882
  Px  C    6   -0.1757    0.2202    0.0615   -0.0088   -0.1945    0.1459    0.0766   -0.1932
  Py  C    6   -0.0942   -0.0354    0.1535    0.2484    0.0202    0.1058   -0.1283    0.0838
  Pz  C    6   -0.0331   -0.0004    0.0443    0.0671   -0.0029    0.0348   -0.0315    0.0143
  S   C    7   -0.1839   -0.1066    0.1479   -0.0049   -0.1114   -0.1225    0.1078   -0.1299
  Px  C    7    0.1043   -0.2063   -0.1230    0.2128    0.0045   -0.1518   -0.0682   -0.1275
  Py  C    7   -0.0800   -0.1604   -0.1288   -0.0982   -0.1357   -0.1102   -0.0855    0.1712
  Pz  C    7   -0.0177   -0.0520   -0.0401   -0.0184   -0.0367   -0.0363   -0.0263    0.0411
  S   C    8    0.0857    0.2452    0.1532    0.0532    0.0785   -0.0078    0.1222    0.1353
  Px  C    8   -0.0174   -0.0134    0.1888    0.0347   -0.1655    0.2006    0.0951   -0.0750
  Py  C    8   -0.2540    0.0267    0.0868   -0.1796    0.1446    0.0050    0.0667   -0.1503
  Pz  C    8   -0.0701    0.0067    0.0311   -0.0477    0.0332    0.0094    0.0219   -0.0444
  S   C    9    0.2731   -0.1381    0.0123   -0.0677   -0.2194    0.0066   -0.1218    0.0229
  Px  C    9   -0.1897   -0.0854    0.0218   -0.0702    0.1522    0.2886    0.1183   -0.0888
  Py  C    9    0.0611    0.1998    0.0601    0.2302    0.0167    0.1591    0.1028    0.2104
  Pz  C    9    0.0089    0.0511    0.0173    0.0601    0.0109    0.0553    0.0329    0.0538
  S   C   10   -0.2723   -0.1397   -0.0124   -0.0671    0.2198    0.0063    0.1221    0.0223
  Px  C   10   -0.1966    0.1727   -0.0107    0.1760    0.1235   -0.1728    0.0523    0.1819
  Py  C   10    0.0370    0.1333   -0.0628    0.1667   -0.0882    0.2780   -0.1452    0.1415
  Pz  C   10    0.0020    0.0436   -0.0175    0.0529   -0.0191    0.0687   -0.0376    0.0461
  S   C   11   -0.0513   -0.0372   -0.2329    0.0068   -0.1658    0.1080   -0.0037    0.0881
  Px  C   11   -0.1049   -0.2102   -0.0227    0.1309   -0.1801   -0.0746    0.1318    0.2094
  Py  C   11    0.1664    0.0762   -0.1633    0.2127    0.0756    0.1623    0.0751   -0.0205
  Pz  C   11    0.0414    0.0126   -0.0454    0.0631    0.0138    0.0412    0.0255    0.0021
  S   C   12    0.2561    0.1811    0.0284    0.0602    0.1479   -0.0909    0.0055   -0.1265
  Px  C   12   -0.0468    0.0724   -0.2322   -0.0585    0.0153    0.2280   -0.0752   -0.1260
  Py  C   12    0.1156    0.0595   -0.0766    0.2382    0.0694   -0.0536    0.3141   -0.1617
  Pz  C   12    0.0299    0.0191   -0.0298    0.0628    0.0196   -0.0060    0.0829   -0.0492
  S   C   13   -0.0261   -0.2048    0.1192    0.0135   -0.1700    0.0474   -0.0290    0.1375
  Px  C   13    0.0139    0.1328    0.0196   -0.1947    0.2281   -0.0474   -0.2978   -0.0743
  Py  C   13    0.1765    0.1083    0.1921    0.0419   -0.0067   -0.2209    0.0536    0.1559
  Pz  C   13    0.0488    0.0348    0.0533    0.0040    0.0070   -0.0622    0.0032    0.0397
  S   C   14   -0.0984   -0.0773   -0.2417    0.0645    0.1287    0.0030    0.0335   -0.1416
  Px  C   14    0.0490    0.2181    0.1270   -0.1287    0.1886   -0.1446   -0.0850    0.1995
  Py  C   14   -0.1190   -0.0965    0.1104   -0.1618   -0.0629    0.1884   -0.1688    0.0473
  Pz  C   14   -0.0307   -0.0180    0.0351   -0.0492   -0.0099    0.0461   -0.0495    0.0205
  S   H   15   -0.1930    0.1045   -0.0076    0.1862   -0.1137   -0.1239   -0.2262   -0.1490
  S   H   16   -0.0054   -0.1538   -0.0735    0.1314    0.2236    0.0183   -0.1861    0.1486
  S   H   17    0.0109   -0.0821    0.2164    0.1599   -0.0094   -0.0350   -0.1384   -0.1923
  S   H   18   -0.0079   -0.0733    0.1786    0.1720    0.1119    0.1099   -0.0873    0.1509
  S   H   19    0.1796   -0.1129   -0.0338   -0.0990   -0.1862   -0.2074   -0.1651   -0.0512
  S   H   20   -0.1786   -0.1139    0.0337   -0.0985    0.1863   -0.2077    0.1643   -0.0521
  S   H   21    0.0086   -0.0732   -0.1785    0.1718   -0.1124    0.1098    0.0883    0.1503
  S   H   22    0.1922    0.1056    0.0079    0.1866    0.1131   -0.1244    0.2251   -0.1502
  S   H   23    0.0059   -0.1539    0.0736    0.1307   -0.2241    0.0182    0.1867    0.1475
  S   H   24   -0.0101   -0.0820   -0.2163    0.1601    0.0091   -0.0353    0.1373   -0.1930


   Root No.      17        18        19        20        21        22        23        24

                 8 b2     10 a1      1 b1     11 a1      9 b2     12 a1     10 b2      1 a2  

               -14.721   -14.651   -14.538   -14.355   -14.296   -13.879   -13.353   -13.136
  
  S   C    1    0.0487   -0.0653   -0.0005    0.0470    0.0915   -0.0024   -0.0022   -0.0000
  Px  C    1    0.1727    0.1382   -0.0055    0.1069   -0.1182    0.2330   -0.2514   -0.0121
  Py  C    1   -0.1365    0.1397   -0.0484   -0.1249    0.1018    0.0658   -0.1931   -0.0804
  Pz  C    1   -0.0297    0.0416    0.1810   -0.0307    0.0225    0.0273   -0.0618    0.2992
  S   C    2   -0.0660    0.0259    0.0003    0.0082   -0.0772   -0.0627    0.0335   -0.0002
  Px  C    2    0.0800    0.0261   -0.0090   -0.3595   -0.0546    0.0794    0.1630   -0.0141
  Py  C    2    0.2350   -0.1061   -0.0478    0.1204   -0.0952    0.0388    0.1332   -0.0876
  Pz  C    2    0.0671   -0.0298    0.1752    0.0157   -0.0282    0.0136    0.0447    0.3208
  S   C    3    0.0440   -0.0065    0.0004    0.0861    0.0123    0.0713   -0.0433    0.0001
  Px  C    3   -0.1539   -0.0732   -0.0110   -0.0147    0.2648   -0.1160   -0.0836   -0.0135
  Py  C    3   -0.2490    0.2342   -0.0556    0.1778   -0.1987   -0.0679   -0.2036   -0.0833
  Pz  C    3   -0.0743    0.0577    0.2193    0.0460   -0.0425   -0.0237   -0.0574    0.3103
  S   C    4   -0.1170    0.0774    0.0005   -0.0496   -0.0820    0.0063    0.0743   -0.0004
  Px  C    4    0.1715    0.1559   -0.0115    0.0420   -0.2144    0.1542   -0.0975   -0.0107
  Py  C    4   -0.0710    0.2038   -0.0880   -0.1288    0.1383    0.0816   -0.1448   -0.0726
  Pz  C    4   -0.0121    0.0580    0.3292   -0.0353    0.0283    0.0284   -0.0423    0.2701
  S   C    5    0.0865   -0.0036   -0.0004   -0.0335    0.0971   -0.0144   -0.0793    0.0003
  Px  C    5    0.1197   -0.0202   -0.0165   -0.2728    0.0347    0.2507   -0.0428   -0.0075
  Py  C    5    0.2120   -0.2027   -0.0994    0.1364   -0.1121    0.0524    0.0017   -0.0496
  Pz  C    5    0.0624   -0.0604    0.3604    0.0234   -0.0292    0.0239   -0.0006    0.1816
  S   C    6   -0.0093   -0.0283   -0.0008   -0.0763   -0.0862   -0.0171    0.0624   -0.0003
  Px  C    6   -0.2264   -0.0323   -0.0109   -0.0702    0.1873   -0.1991    0.1517   -0.0111
  Py  C    6   -0.2043    0.2733   -0.0598    0.1719   -0.2683   -0.0523   -0.0532   -0.0688
  Pz  C    6   -0.0651    0.0698    0.2361    0.0421   -0.0648   -0.0233   -0.0069    0.2545
  S   C    7   -0.0866   -0.0048   -0.0006   -0.0319   -0.0977   -0.0143    0.0792   -0.0003
  Px  C    7    0.0007   -0.0835   -0.0136    0.3043    0.0902   -0.1926   -0.0389    0.0075
  Py  C    7   -0.2398   -0.1899   -0.1003   -0.0134    0.0814    0.1663    0.0196    0.0491
  Pz  C    7   -0.0657   -0.0597    0.3601    0.0061    0.0256    0.0368    0.0027   -0.1821
  S   C    8    0.1159    0.0790    0.0008   -0.0511    0.0812    0.0062   -0.0743    0.0003
  Px  C    8    0.1853   -0.0322   -0.0144   -0.0970   -0.2575   -0.0929   -0.0128    0.0110
  Py  C    8   -0.0246    0.2528   -0.0873   -0.0919   -0.0181    0.1450    0.1735    0.0731
  Pz  C    8    0.0004    0.0637    0.3290   -0.0308   -0.0150    0.0355    0.0454   -0.2703
  S   C    9    0.0286   -0.0218   -0.0002    0.0195   -0.0582    0.0159    0.0737   -0.0004
  Px  C    9    0.0320   -0.0617   -0.0090    0.1418    0.0335    0.4375   -0.1102    0.0037
  Py  C    9    0.1293   -0.2404   -0.0694    0.0721    0.0394   -0.0319   -0.2385    0.0212
  Pz  C    9    0.0365   -0.0714    0.2454    0.0241    0.0122    0.0091   -0.0704   -0.0732
  S   C   10   -0.0282   -0.0221   -0.0001    0.0185    0.0586    0.0156   -0.0737    0.0004
  Px  C   10   -0.0353   -0.0664   -0.0122   -0.0880    0.0069   -0.3976    0.0223   -0.0034
  Py  C   10   -0.1245   -0.2411   -0.0688    0.1323   -0.0480    0.1826    0.2616   -0.0216
  Pz  C   10   -0.0355   -0.0718    0.2455    0.0310   -0.0130    0.0333    0.0727    0.0730
  S   C   11    0.0097   -0.0282   -0.0007   -0.0776    0.0848   -0.0172   -0.0623    0.0001
  Px  C   11   -0.0978    0.1627   -0.0060    0.1422    0.2995    0.1464    0.1589    0.0096
  Py  C   11    0.2846    0.2269   -0.0608    0.1133    0.1450   -0.1419   -0.0270    0.0701
  Pz  C   11    0.0736    0.0652    0.2358    0.0349    0.0508   -0.0337   -0.0025   -0.2545
  S   C   12   -0.0477   -0.0659   -0.0007    0.0486   -0.0907   -0.0022    0.0022    0.0002
  Px  C   12    0.2191   -0.0481   -0.0086   -0.1534   -0.1567   -0.1697   -0.1236    0.0115
  Py  C   12    0.0329    0.1890   -0.0471   -0.0571   -0.0322    0.1691    0.2898    0.0798
  Pz  C   12    0.0172    0.0475    0.1811   -0.0227   -0.0150    0.0392    0.0730   -0.2995
  S   C   13    0.0658    0.0268    0.0004    0.0068    0.0771   -0.0628   -0.0337    0.0000
  Px  C   13   -0.0456   -0.0763   -0.0057    0.3736    0.0057   -0.0498    0.0757    0.0128
  Py  C   13   -0.2422   -0.0833   -0.0492   -0.0698    0.1085    0.0718   -0.1946    0.0890
  Pz  C   13   -0.0680   -0.0278    0.1747   -0.0060    0.0298    0.0173   -0.0518   -0.3205
  S   C   14   -0.0438   -0.0071    0.0004    0.0864   -0.0107    0.0711    0.0434   -0.0000
  Px  C   14   -0.0127    0.1801   -0.0051    0.0959    0.3314    0.0663    0.0281    0.0114
  Py  C   14    0.2890    0.1730   -0.0567    0.1468    0.0474   -0.1152    0.2176    0.0836
  Pz  C   14    0.0787    0.0517    0.2189    0.0425    0.0258   -0.0295    0.0591   -0.3105
  S   H   15    0.0471    0.1062    0.0012    0.0172    0.0424    0.1596   -0.2471    0.0007
  S   H   16   -0.0263    0.0528   -0.0007   -0.2692   -0.0645    0.0134    0.1132   -0.0001
  S   H   17    0.1798   -0.1769   -0.0026   -0.0866    0.1984    0.0629    0.1063   -0.0005
  S   H   18   -0.1072    0.2039    0.0029    0.1023   -0.2462   -0.0109   -0.0253    0.0001
  S   H   19   -0.0742    0.1354    0.0003   -0.1044   -0.0789   -0.2057    0.2309   -0.0012
  S   H   20    0.0721    0.1365    0.0005   -0.1059    0.0767   -0.2055   -0.2313    0.0012
  S   H   21    0.1046    0.2055    0.0030    0.0983    0.2477   -0.0117    0.0254    0.0005
  S   H   22   -0.0488    0.1056    0.0016    0.0179   -0.0416    0.1592    0.2473   -0.0014
  S   H   23    0.0252    0.0531   -0.0007   -0.2705    0.0602    0.0132   -0.1133   -0.0000
  S   H   24   -0.1774   -0.1794   -0.0030   -0.0833   -0.1994    0.0634   -0.1060    0.0010


   Root No.      25        26        27        28        29        30        31        32

                11 b2     13 a1     27 ????   28 ????   12 b2      2 b1      2 a2      3 a2  

               -12.473   -12.412   -11.688   -11.687   -11.425   -10.668   -10.092    -9.031
  
  S   C    1   -0.0305    0.0040   -0.0022    0.0018   -0.0102   -0.0001   -0.0001   -0.0001
  Px  C    1   -0.1828    0.0758   -0.1525    0.1442   -0.0343    0.0049    0.0151    0.0040
  Py  C    1    0.1499    0.2775    0.1037    0.0240   -0.1723    0.0300    0.0959    0.0247
  Pz  C    1    0.0323    0.0793   -0.1931   -0.2446   -0.0485   -0.1111   -0.3533   -0.0912
  S   C    2   -0.0084   -0.0079    0.0092   -0.0075    0.0062    0.0001    0.0000    0.0001
  Px  C    2    0.2910   -0.0628    0.1566   -0.1186    0.0235    0.0164    0.0006    0.0164
  Py  C    2   -0.1291   -0.2724   -0.0028    0.0759    0.1786    0.1029    0.0034    0.1026
  Pz  C    2   -0.0231   -0.0760   -0.1389   -0.1577    0.0495   -0.3788   -0.0129   -0.3781
  S   C    3   -0.0305   -0.0083    0.0174   -0.0148   -0.0021   -0.0001   -0.0001   -0.0001
  Px  C    3   -0.2108    0.0882   -0.2001    0.1683   -0.0199    0.0145   -0.0127    0.0089
  Py  C    3    0.0702    0.2511    0.0669   -0.0463   -0.1542    0.0897   -0.0798    0.0551
  Pz  C    3    0.0092    0.0723   -0.0085   -0.0260   -0.0424   -0.3316    0.2946   -0.2034
  S   C    4   -0.0024    0.0111    0.0008   -0.0007   -0.0038    0.0000   -0.0001    0.0000
  Px  C    4    0.2662   -0.0381    0.1808   -0.1616    0.0385   -0.0000   -0.0149   -0.0119
  Py  C    4    0.0390   -0.1487   -0.1238    0.0343    0.2791    0.0010   -0.0949   -0.0750
  Pz  C    4    0.0214   -0.0420    0.1068    0.1623    0.0778   -0.0035    0.3486    0.2762
  S   C    5   -0.0389    0.0157    0.0193   -0.0159    0.0124   -0.0001   -0.0000    0.0001
  Px  C    5    0.0228    0.0731   -0.2292    0.1940   -0.0688   -0.0156   -0.0005   -0.0137
  Py  C    5   -0.0177    0.1885    0.1052   -0.0671   -0.2635   -0.1047   -0.0036   -0.0909
  Pz  C    5   -0.0040    0.0547   -0.0202   -0.0573   -0.0747    0.3843    0.0136    0.3336
  S   C    6   -0.0056   -0.0195   -0.0026    0.0023   -0.0129    0.0000    0.0001    0.0000
  Px  C    6    0.1988   -0.0527    0.1692   -0.1269    0.0820   -0.0087    0.0145   -0.0115
  Py  C    6   -0.1357   -0.1828    0.0202    0.0718    0.2569   -0.0544    0.0926   -0.0726
  Pz  C    6   -0.0287   -0.0511   -0.1613   -0.1946    0.0728    0.2011   -0.3420    0.2679
  S   C    7    0.0392    0.0152    0.0195   -0.0160   -0.0123   -0.0003   -0.0001   -0.0000
  Px  C    7    0.0288    0.0297    0.2498   -0.2051    0.0722   -0.0157    0.0006    0.0133
  Py  C    7    0.0072    0.1993   -0.0189    0.0358    0.2630   -0.1048    0.0037    0.0912
  Pz  C    7    0.0033    0.0553   -0.0346   -0.0455    0.0744    0.3841   -0.0137   -0.3336
  S   C    8    0.0026    0.0112    0.0006   -0.0006    0.0039    0.0001    0.0001   -0.0001
  Px  C    8    0.2124   -0.0436   -0.2116    0.1665   -0.1062    0.0003    0.0137    0.0107
  Py  C    8   -0.1643   -0.1454   -0.0218   -0.0504   -0.2620    0.0011    0.0953    0.0754
  Pz  C    8   -0.0360   -0.0421    0.1183    0.1526   -0.0759   -0.0037   -0.3487   -0.2762
  S   C    9    0.0219    0.0481   -0.0036    0.0029    0.0163    0.0001   -0.0001   -0.0001
  Px  C    9    0.0522   -0.1002    0.1366   -0.1393    0.0394    0.0042    0.0049    0.0047
  Py  C    9    0.2014    0.1341   -0.1275   -0.0604    0.2371    0.0288    0.0329    0.0309
  Pz  C    9    0.0573    0.0320    0.2925    0.3647    0.0667   -0.1051   -0.1200   -0.1129
  S   C   10   -0.0212    0.0485   -0.0036    0.0031   -0.0162   -0.0000    0.0001    0.0001
  Px  C   10   -0.0522    0.1548   -0.1647    0.1125   -0.0839    0.0045   -0.0049   -0.0047
  Py  C   10   -0.2000    0.0714   -0.0490   -0.1254   -0.2258    0.0288   -0.0328   -0.0308
  Pz  C   10   -0.0569    0.0257    0.3016    0.3573   -0.0650   -0.1051    0.1198    0.1127
  S   C   11    0.0053   -0.0195   -0.0028    0.0022    0.0129    0.0001    0.0002   -0.0002
  Px  C   11    0.2402   -0.0481   -0.1465    0.1346   -0.0570   -0.0075   -0.0131    0.0102
  Py  C   11    0.0199   -0.1845    0.1026    0.0042   -0.2632   -0.0547   -0.0930    0.0730
  Pz  C   11    0.0150   -0.0523   -0.1516   -0.2024   -0.0743    0.2009    0.3420   -0.2679
  S   C   12    0.0305    0.0034   -0.0021    0.0020    0.0101   -0.0001   -0.0002    0.0000
  Px  C   12   -0.2330    0.0752    0.1722   -0.1278    0.0566    0.0041   -0.0136   -0.0034
  Py  C   12   -0.0388    0.2792    0.0198    0.0943    0.1670    0.0304   -0.0965   -0.0249
  Pz  C   12   -0.0190    0.0788   -0.2027   -0.2364    0.0473   -0.1111    0.3533    0.0913
  S   C   13    0.0083   -0.0079    0.0091   -0.0077   -0.0061   -0.0002    0.0001    0.0002
  Px  C   13    0.3168   -0.0851   -0.1454    0.1314   -0.0690    0.0145   -0.0004   -0.0144
  Py  C   13   -0.0313   -0.2670    0.0756    0.0116   -0.1670    0.1035   -0.0035   -0.1034
  Pz  C   13    0.0041   -0.0767   -0.1297   -0.1650   -0.0489   -0.3786    0.0129    0.3782
  S   C   14    0.0303   -0.0087    0.0175   -0.0148    0.0022    0.0000    0.0001    0.0000
  Px  C   14   -0.2183    0.0511    0.2064   -0.1708    0.0603    0.0127    0.0114   -0.0078
  Py  C   14    0.0440    0.2609   -0.0381    0.0410    0.1441    0.0908    0.0807   -0.0558
  Pz  C   14    0.0042    0.0729   -0.0204   -0.0161    0.0415   -0.3314   -0.2945    0.2034
  S   H   15   -0.0395    0.2094   -0.0707    0.0591   -0.1367   -0.0000    0.0001   -0.0000
  S   H   16    0.2492    0.0047    0.1394   -0.1160   -0.0176   -0.0001    0.0000   -0.0000
  S   H   17   -0.1095   -0.1939   -0.0848    0.0702    0.1382    0.0001   -0.0001    0.0000
  S   H   18   -0.1325   -0.1677   -0.0666    0.0551    0.1796    0.0002   -0.0001    0.0001
  S   H   19   -0.1298    0.0023   -0.0700    0.0587   -0.1698    0.0001   -0.0001   -0.0001
  S   H   20    0.1301    0.0004   -0.0708    0.0589    0.1697    0.0000    0.0001    0.0001
  S   H   21    0.1302   -0.1692   -0.0659    0.0549   -0.1799    0.0002    0.0001   -0.0001
  S   H   22    0.0424    0.2086   -0.0710    0.0591    0.1366   -0.0000   -0.0000    0.0001
  S   H   23   -0.2491    0.0082    0.1391   -0.1158    0.0182   -0.0000   -0.0000   -0.0000
  S   H   24    0.1069   -0.1953   -0.0844    0.0702   -0.1387    0.0000   -0.0000    0.0000


   Root No.      33        34        35        36        37        38        39        40

                 3 b1      4 a2      4 b1      5 b1      5 a2      6 a2      6 b1      7 a2  

                -8.828    -0.649    -0.471     0.353     0.759     1.447     2.335     3.019
  
  S   C    1    0.0001   -0.0001   -0.0000    0.0001   -0.0001   -0.0000   -0.0000   -0.0002
  Px  C    1   -0.0136    0.0135    0.0037   -0.0152    0.0047    0.0133    0.0127   -0.0074
  Py  C    1   -0.0855    0.0854    0.0224   -0.0965    0.0286    0.0846    0.0813   -0.0507
  Pz  C    1    0.3154   -0.3149   -0.0829    0.3559   -0.1059   -0.3120   -0.2996    0.1863
  S   C    2   -0.0000   -0.0000   -0.0001   -0.0000   -0.0001   -0.0000   -0.0001   -0.0001
  Px  C    2    0.0006    0.0006   -0.0164    0.0009   -0.0163   -0.0092   -0.0140    0.0081
  Py  C    2    0.0037    0.0038   -0.1025    0.0054   -0.1019   -0.0575   -0.0871    0.0490
  Pz  C    2   -0.0136   -0.0138    0.3780   -0.0201    0.3756    0.2119    0.3212   -0.1806
  S   C    3   -0.0000    0.0000   -0.0000    0.0001   -0.0000   -0.0001    0.0001   -0.0004
  Px  C    3    0.0126   -0.0125    0.0093    0.0124    0.0143    0.0012    0.0131   -0.0085
  Py  C    3    0.0785   -0.0783    0.0575    0.0783    0.0892    0.0070    0.0834   -0.0595
  Pz  C    3   -0.2897    0.2888   -0.2121   -0.2885   -0.3292   -0.0259   -0.3076    0.2191
  S   C    4    0.0001    0.0001   -0.0000   -0.0002    0.0000    0.0000   -0.0001    0.0002
  Px  C    4    0.0091    0.0090    0.0115   -0.0153   -0.0003    0.0088   -0.0118    0.0149
  Py  C    4    0.0582    0.0574    0.0730   -0.0971   -0.0021    0.0554   -0.0740    0.0896
  Pz  C    4   -0.2133   -0.2107   -0.2689    0.3567    0.0079   -0.2036    0.2726   -0.3289
  S   C    5    0.0001   -0.0001    0.0001    0.0000   -0.0001    0.0001   -0.0001   -0.0006
  Px  C    5    0.0080   -0.0079   -0.0139    0.0007   -0.0158    0.0020    0.0077   -0.0135
  Py  C    5    0.0523   -0.0519   -0.0911    0.0051   -0.1058    0.0130    0.0501   -0.0984
  Pz  C    5   -0.1929    0.1913    0.3348   -0.0192    0.3888   -0.0481   -0.1844    0.3609
  S   C    6   -0.0001   -0.0000    0.0000    0.0002    0.0001   -0.0001   -0.0001    0.0000
  Px  C    6   -0.0099   -0.0099    0.0116    0.0142    0.0086   -0.0104   -0.0109    0.0106
  Py  C    6   -0.0635   -0.0632    0.0739    0.0910    0.0550   -0.0667   -0.0685    0.0639
  Pz  C    6    0.2343    0.2330   -0.2721   -0.3359   -0.2028    0.2464    0.2526   -0.2351
  S   C    7    0.0001    0.0001   -0.0000   -0.0000    0.0003   -0.0001   -0.0000    0.0008
  Px  C    7    0.0077    0.0076   -0.0133    0.0008    0.0157   -0.0019    0.0074    0.0159
  Py  C    7    0.0525    0.0521   -0.0914    0.0053    0.1060   -0.0131    0.0504    0.0985
  Pz  C    7   -0.1929   -0.1910    0.3349   -0.0196   -0.3887    0.0482   -0.1846   -0.3607
  S   C    8    0.0000   -0.0000   -0.0000   -0.0001    0.0000   -0.0001   -0.0001   -0.0001
  Px  C    8    0.0084   -0.0082    0.0105   -0.0140    0.0003   -0.0079   -0.0105   -0.0121
  Py  C    8    0.0583   -0.0576    0.0735   -0.0976    0.0022   -0.0555   -0.0744   -0.0898
  Pz  C    8   -0.2133    0.2105   -0.2690    0.3568   -0.0083    0.2033    0.2728    0.3288
  S   C    9   -0.0000    0.0000    0.0001    0.0000   -0.0001    0.0001   -0.0000    0.0002
  Px  C    9   -0.0155   -0.0157   -0.0044    0.0048   -0.0044    0.0193    0.0029    0.0102
  Py  C    9   -0.1036   -0.1048   -0.0294    0.0325   -0.0299    0.1275    0.0195    0.0645
  Pz  C    9    0.3790    0.3832    0.1076   -0.1187    0.1087   -0.4663   -0.0708   -0.2364
  S   C   10    0.0000   -0.0001    0.0001   -0.0001    0.0000   -0.0000   -0.0001    0.0001
  Px  C   10   -0.0158    0.0159   -0.0045    0.0050    0.0045   -0.0192    0.0030   -0.0090
  Py  C   10   -0.1036    0.1048   -0.0294    0.0324    0.0298   -0.1276    0.0194   -0.0645
  Pz  C   10    0.3790   -0.3831    0.1077   -0.1187   -0.1086    0.4664   -0.0707    0.2365
  S   C   11    0.0001   -0.0002   -0.0002   -0.0001    0.0000   -0.0001    0.0001   -0.0001
  Px  C   11   -0.0091    0.0089    0.0105    0.0129   -0.0079    0.0094   -0.0096   -0.0086
  Py  C   11   -0.0638    0.0636    0.0741    0.0914   -0.0551    0.0670   -0.0689   -0.0638
  Pz  C   11    0.2341   -0.2330   -0.2719   -0.3357    0.2030   -0.2463    0.2527    0.2351
  S   C   12   -0.0002   -0.0001   -0.0000   -0.0002    0.0000   -0.0002    0.0001    0.0002
  Px  C   12   -0.0120   -0.0120    0.0032   -0.0136   -0.0040   -0.0120    0.0116    0.0078
  Py  C   12   -0.0861   -0.0860    0.0228   -0.0972   -0.0289   -0.0852    0.0820    0.0510
  Pz  C   12    0.3152    0.3147   -0.0831    0.3560    0.1056    0.3118   -0.2996   -0.1861
  S   C   13    0.0000    0.0000    0.0002   -0.0000   -0.0001   -0.0001    0.0001    0.0002
  Px  C   13    0.0006   -0.0005   -0.0144    0.0008    0.0144    0.0081   -0.0123   -0.0067
  Py  C   13    0.0037   -0.0038   -0.1034    0.0057    0.1026    0.0580   -0.0877   -0.0492
  Pz  C   13   -0.0136    0.0140    0.3780   -0.0204   -0.3754   -0.2117    0.3211    0.1805
  S   C   14    0.0000    0.0000   -0.0000    0.0001   -0.0000    0.0001    0.0001    0.0005
  Px  C   14    0.0111    0.0111    0.0081    0.0112   -0.0127   -0.0009    0.0121    0.0092
  Py  C   14    0.0794    0.0791    0.0580    0.0789   -0.0902   -0.0071    0.0842    0.0597
  Pz  C   14   -0.2895   -0.2887   -0.2119   -0.2882    0.3293    0.0259   -0.3076   -0.2189
  S   H   15   -0.0001    0.0000    0.0001   -0.0000    0.0001    0.0000    0.0001   -0.0001
  S   H   16   -0.0000    0.0000    0.0000   -0.0000    0.0000    0.0000    0.0001   -0.0003
  S   H   17    0.0001    0.0001    0.0000   -0.0001    0.0000    0.0000   -0.0000    0.0001
  S   H   18    0.0000    0.0001    0.0001   -0.0001    0.0001    0.0001    0.0000    0.0002
  S   H   19   -0.0001    0.0001   -0.0001    0.0001    0.0000    0.0000    0.0002    0.0003
  S   H   20   -0.0001   -0.0000   -0.0001    0.0001   -0.0000   -0.0001    0.0002   -0.0002
  S   H   21   -0.0000    0.0000    0.0001    0.0001   -0.0002    0.0001   -0.0002   -0.0005
  S   H   22    0.0000    0.0001    0.0001    0.0002   -0.0001    0.0001   -0.0001   -0.0002
  S   H   23   -0.0000    0.0000   -0.0001    0.0000    0.0001    0.0001   -0.0000    0.0002
  S   H   24   -0.0000   -0.0000    0.0000   -0.0000   -0.0001   -0.0000    0.0001    0.0001


   Root No.      41        42        43        44        45        46        47        48

                13 b2     14 a1     14 b2     15 a1     16 a1     15 b2     17 a1     16 b2  

                 3.718     3.731     4.355     4.391     4.646     4.799     4.823     4.897
  
  S   C    1   -0.0506   -0.0265   -0.0623   -0.0182    0.0025    0.1310   -0.1094   -0.0827
  Px  C    1    0.1604   -0.0002   -0.0545   -0.1949    0.0716   -0.1661   -0.1050    0.0149
  Py  C    1   -0.0769    0.1059    0.2360    0.1574    0.0641    0.0065    0.3087    0.2106
  Pz  C    1   -0.0145    0.0287    0.0617    0.0345    0.0204   -0.0053    0.0792    0.0578
  S   C    2   -0.0457   -0.0127    0.0087    0.0889    0.0773    0.0061    0.0683    0.1686
  Px  C    2    0.0911    0.0504    0.0531   -0.1689    0.0265    0.0127    0.0499   -0.0997
  Py  C    2   -0.0122    0.1571    0.3011    0.0966    0.0300   -0.0293    0.3765    0.1389
  Pz  C    2    0.0011    0.0449    0.0840    0.0188    0.0094   -0.0074    0.1044    0.0334
  S   C    3   -0.0910    0.0211    0.0608    0.0569   -0.0547   -0.0927    0.0418    0.0263
  Px  C    3    0.2529    0.0561    0.0784   -0.2910    0.1330    0.1723    0.2020   -0.0674
  Py  C    3   -0.0324    0.1002    0.1753    0.0617   -0.0467   -0.1060    0.1265   -0.0439
  Pz  C    3    0.0015    0.0294    0.0509    0.0042   -0.0071   -0.0213    0.0430   -0.0147
  S   C    4   -0.0118   -0.0018   -0.0513    0.0120    0.3393    0.0070   -0.0682   -0.1214
  Px  C    4    0.2775    0.0991    0.0826   -0.3544   -0.1343    0.2594    0.1309   -0.0797
  Py  C    4   -0.0564    0.3400    0.2517    0.1137   -0.1215   -0.0769   -0.1737   -0.3045
  Pz  C    4   -0.0023    0.0970    0.0720    0.0156   -0.0385   -0.0098   -0.0416   -0.0864
  S   C    5   -0.1113    0.0021    0.0300   -0.1529    0.0704    0.2400    0.0605    0.3459
  Px  C    5    0.4135    0.0720   -0.0028   -0.0453    0.1171   -0.3022   -0.0061    0.1620
  Py  C    5   -0.1194    0.3078    0.2383    0.0771    0.2037   -0.0628   -0.2023   -0.0759
  Pz  C    5   -0.0168    0.0864    0.0648    0.0193    0.0601   -0.0294   -0.0553   -0.0137
  S   C    6   -0.0029   -0.1048   -0.0696   -0.0087   -0.0319   -0.0765    0.0469   -0.1161
  Px  C    6    0.1862    0.1482    0.0391   -0.2132    0.1479   -0.1687   -0.1481    0.1522
  Py  C    6    0.0088    0.1902    0.1370    0.0498    0.1843    0.0364    0.0087    0.1553
  Pz  C    6    0.0111    0.0579    0.0387    0.0043    0.0563    0.0026   -0.0039    0.0485
  S   C    7    0.1114   -0.0011   -0.0283   -0.1533    0.0704   -0.2391    0.0670   -0.3457
  Px  C    7    0.4227    0.0772   -0.1217    0.0768   -0.0012   -0.2338   -0.0933    0.1786
  Py  C    7   -0.0853    0.3058   -0.2059    0.0430    0.2351    0.1970   -0.1834   -0.0130
  Pz  C    7   -0.0050    0.0869   -0.0612    0.0149    0.0642    0.0441   -0.0538    0.0032
  S   C    8    0.0122   -0.0025    0.0522    0.0130    0.3401   -0.0085   -0.0694    0.1215
  Px  C    8    0.2724    0.0742   -0.0574    0.3651    0.0564    0.2606   -0.2059    0.0807
  Py  C    8   -0.0737    0.3472   -0.2581   -0.0750   -0.1706   -0.0590   -0.0900    0.3032
  Pz  C    8   -0.0106    0.0974   -0.0726   -0.0063   -0.0443   -0.0060   -0.0327    0.0861
  S   C    9   -0.0201    0.1022   -0.1134   -0.1133   -0.0996    0.1143    0.0501    0.0574
  Px  C    9    0.1692   -0.0287    0.0989    0.0322    0.0073    0.3231   -0.0334   -0.0205
  Py  C    9   -0.1292    0.2539   -0.2133   -0.1018   -0.3117   -0.0821   -0.0096    0.1383
  Pz  C    9   -0.0275    0.0685   -0.0544   -0.0264   -0.0850   -0.0090   -0.0040    0.0370
  S   C   10    0.0234    0.1012    0.1146   -0.1119   -0.0992   -0.1130    0.0528   -0.0570
  Px  C   10    0.2163    0.1441    0.1930   -0.0759   -0.1610    0.3233    0.0190   -0.0866
  Py  C   10    0.0374    0.2065    0.1389   -0.0713   -0.2685   -0.0843   -0.0222   -0.1114
  Pz  C   10    0.0183    0.0623    0.0461   -0.0225   -0.0801   -0.0098   -0.0053   -0.0341
  S   C   11   -0.0006   -0.1049    0.0695   -0.0078   -0.0321    0.0775    0.0445    0.1166
  Px  C   11    0.1565   -0.0395   -0.0366    0.2100   -0.0375   -0.1627    0.1363    0.0564
  Py  C   11   -0.0896    0.2404   -0.1368   -0.0611    0.2329    0.0482   -0.0637   -0.2092
  Pz  C   11   -0.0193    0.0637   -0.0386   -0.0087    0.0619    0.0070   -0.0121   -0.0548
  S   C   12    0.0498   -0.0282    0.0627   -0.0174    0.0020   -0.1330   -0.1078    0.0819
  Px  C   12    0.1796    0.0473   -0.1681    0.2461   -0.0304   -0.1437    0.2489   -0.0900
  Py  C   12   -0.0072    0.0926   -0.1800    0.0414    0.0913    0.0781    0.2185   -0.1890
  Pz  C   12    0.0055    0.0273   -0.0557    0.0208    0.0238    0.0157    0.0691   -0.0551
  S   C   13    0.0453   -0.0142   -0.0096    0.0887    0.0777   -0.0052    0.0697   -0.1682
  Px  C   13    0.0864    0.0317   -0.1061    0.1939   -0.0078    0.0281    0.1452   -0.1553
  Py  C   13   -0.0281    0.1626   -0.2882   -0.0005    0.0401    0.0259    0.3522   -0.0700
  Pz  C   13   -0.0049    0.0455   -0.0827    0.0071    0.0107    0.0082    0.1018   -0.0249
  S   C   14    0.0915    0.0184   -0.0619    0.0563   -0.0549    0.0936    0.0402   -0.0258
  Px  C   14    0.2361   -0.0065   -0.0226    0.2841   -0.1397    0.2008   -0.1163   -0.0381
  Py  C   14   -0.0898    0.1172   -0.1893   -0.0886    0.0241    0.0133    0.2065    0.0728
  Pz  C   14   -0.0148    0.0321   -0.0529   -0.0131    0.0011    0.0115    0.0521    0.0184
  S   H   15   -0.0361   -0.0930   -0.1110    0.0587   -0.1215    0.0150   -0.0685   -0.1125
  S   H   16   -0.0941    0.0051    0.0295    0.1585   -0.0975   -0.0277   -0.0034    0.0021
  S   H   17   -0.0276    0.1111    0.1520    0.1089   -0.0286   -0.0874    0.0615   -0.0560
  S   H   18    0.0739   -0.0991   -0.1200   -0.1169   -0.1297   -0.0150   -0.0836   -0.0410
  S   H   19    0.0767    0.1315    0.0176    0.0452   -0.1704    0.0999   -0.0838    0.0469
  S   H   20   -0.0728    0.1342   -0.0182    0.0449   -0.1711   -0.1015   -0.0817   -0.0480
  S   H   21   -0.0770   -0.0968    0.1210   -0.1153   -0.1302    0.0135   -0.0837    0.0401
  S   H   22    0.0329   -0.0942    0.1100    0.0598   -0.1221   -0.0160   -0.0685    0.1117
  S   H   23    0.0941    0.0022   -0.0318    0.1580   -0.0978    0.0277   -0.0032   -0.0024
  S   H   24    0.0311    0.1103   -0.1532    0.1070   -0.0282    0.0885    0.0594    0.0565


   Root No.      49        50        51        52        53        54        55        56

                17 b2     18 b2     18 a1     19 a1     19 b2     20 a1     20 b2     21 a1  

                 5.015     5.060     5.085     5.229     5.364     5.607     5.691     5.798
  
  S   C    1    0.0901   -0.0041   -0.1852   -0.0299   -0.0977   -0.0408    0.2181    0.3375
  Px  C    1    0.2613    0.0107    0.2615    0.1881    0.1223   -0.0640   -0.1557   -0.0205
  Py  C    1   -0.1579    0.1304    0.0593   -0.0626    0.0011   -0.0166   -0.0429    0.0340
  Pz  C    1   -0.0316    0.0358    0.0273   -0.0090    0.0055   -0.0072   -0.0183    0.0083
  S   C    2   -0.0764   -0.0023    0.0678   -0.1482   -0.1217   -0.1563   -0.1792   -0.2208
  Px  C    2    0.1706    0.1970   -0.0392    0.2612    0.1504   -0.0149    0.0528    0.0968
  Py  C    2   -0.1712    0.1900    0.0600    0.0650    0.1373    0.0969   -0.0068   -0.0127
  Pz  C    2   -0.0390    0.0602    0.0146    0.0290    0.0437    0.0256    0.0004    0.0007
  S   C    3    0.0980    0.0251    0.1539    0.1857    0.2484   -0.0249    0.1294    0.2999
  Px  C    3    0.0185    0.3217   -0.2398    0.0941   -0.0152    0.0623    0.1060    0.0194
  Py  C    3   -0.0189    0.0799    0.0680    0.2113    0.1789    0.1998   -0.0382   -0.0094
  Pz  C    3   -0.0043    0.0355    0.0081    0.0613    0.0479    0.0568   -0.0057   -0.0017
  S   C    4    0.0431    0.2964   -0.2734    0.1071   -0.2768    0.0701   -0.0939   -0.1135
  Px  C    4   -0.0141    0.0256   -0.1988   -0.1401   -0.0385   -0.0612    0.1179   -0.1133
  Py  C    4    0.0571   -0.1626   -0.0875    0.0804   -0.0601   -0.0125   -0.0223    0.0227
  Pz  C    4    0.0148   -0.0430   -0.0324    0.0158   -0.0181   -0.0059   -0.0012    0.0013
  S   C    5    0.2420   -0.0902    0.1908   -0.2340    0.0616    0.0092    0.0727    0.0512
  Px  C    5   -0.1627   -0.0867    0.1399   -0.1878   -0.1848    0.0247    0.0953    0.0716
  Py  C    5    0.2607   -0.0249   -0.0547    0.0165   -0.2675    0.1024   -0.0397   -0.0113
  Pz  C    5    0.0644   -0.0104   -0.0091   -0.0032   -0.0804    0.0288   -0.0067   -0.0000
  S   C    6    0.0220    0.1048    0.0780    0.2647    0.1513   -0.2589   -0.1982   -0.1637
  Px  C    6    0.2906   -0.0929    0.3117    0.0016    0.0269    0.1126   -0.1390   -0.1424
  Py  C    6    0.0673   -0.0467   -0.0105   -0.1678   -0.2253   -0.2238    0.0922    0.0699
  Pz  C    6    0.0305   -0.0166    0.0105   -0.0453   -0.0599   -0.0560    0.0190    0.0128
  S   C    7   -0.2411    0.0902    0.1926   -0.2330   -0.0616    0.0092   -0.0729    0.0528
  Px  C    7   -0.2723   -0.0632   -0.1466    0.1727   -0.0280    0.0288    0.1030   -0.0673
  Py  C    7   -0.1483    0.0638    0.0207   -0.0754    0.3220    0.1010   -0.0115    0.0249
  Pz  C    7   -0.0517    0.0149   -0.0002   -0.0138    0.0867    0.0286    0.0009    0.0042
  S   C    8   -0.0451   -0.2962   -0.2723    0.1080    0.2761    0.0695    0.0938   -0.1132
  Px  C    8   -0.0384    0.1044    0.1300    0.1619   -0.0038    0.0473    0.1137    0.1092
  Py  C    8   -0.0445    0.1285   -0.1721    0.0021    0.0715   -0.0404   -0.0370   -0.0356
  Pz  C    8   -0.0135    0.0392   -0.0420    0.0069    0.0195   -0.0091   -0.0055   -0.0055
  S   C    9   -0.0205    0.0971    0.0065   -0.0954   -0.1027    0.0368   -0.3399    0.0635
  Px  C    9   -0.0450   -0.1885   -0.0191    0.0473    0.0721   -0.0600   -0.3206   -0.0708
  Py  C    9   -0.0007    0.2025    0.0057   -0.0419   -0.0450   -0.1030    0.0017   -0.0239
  Pz  C    9   -0.0021    0.0477    0.0008   -0.0095   -0.0094   -0.0306   -0.0128   -0.0094
  S   C   10    0.0201   -0.0978    0.0065   -0.0952    0.1031    0.0376    0.3402    0.0649
  Px  C   10   -0.0390   -0.2657    0.0208   -0.0616    0.0858    0.0002   -0.2802    0.0501
  Py  C   10    0.0222   -0.0863   -0.0043   -0.0130    0.0049   -0.1192    0.1531   -0.0559
  Pz  C   10    0.0045   -0.0346   -0.0003   -0.0060    0.0049   -0.0326    0.0303   -0.0132
  S   C   11   -0.0209   -0.1040    0.0787    0.2646   -0.1514   -0.2588    0.1986   -0.1644
  Px  C   11    0.2170   -0.0582   -0.2788   -0.0853    0.1357   -0.2092   -0.1673    0.1574
  Py  C   11   -0.1977    0.0861    0.1426   -0.1447    0.1831   -0.1406   -0.0135   -0.0074
  Pz  C   11   -0.0453    0.0213    0.0281   -0.0429    0.0552   -0.0461   -0.0102    0.0041
  S   C   12   -0.0913    0.0040   -0.1844   -0.0298    0.0977   -0.0404   -0.2186    0.3362
  Px  C   12    0.3037   -0.0564   -0.2014   -0.1955    0.1064    0.0474   -0.1145    0.0346
  Py  C   12    0.0133   -0.1183    0.1775    0.0362   -0.0597   -0.0453    0.1125    0.0185
  Pz  C   12    0.0151   -0.0345    0.0406    0.0024   -0.0121   -0.0107    0.0262    0.0066
  S   C   13    0.0765    0.0025    0.0669   -0.1483    0.1220   -0.1566    0.1795   -0.2214
  Px  C   13    0.2338    0.0767    0.0616   -0.1957    0.0629    0.0613    0.0496   -0.0906
  Py  C   13    0.0669   -0.2606    0.0332    0.1830   -0.1921    0.0768   -0.0195    0.0359
  Pz  C   13    0.0272   -0.0683    0.0114    0.0426   -0.0502    0.0234   -0.0035    0.0064
  S   C   14   -0.0962   -0.0245    0.1549    0.1859   -0.2485   -0.0246   -0.1298    0.2991
  Px  C   14    0.0281    0.2415    0.2421    0.0222   -0.1019    0.0452    0.1115   -0.0216
  Py  C   14    0.0071   -0.2248   -0.0559    0.2298   -0.1487    0.2038   -0.0180    0.0025
  Pz  C   14    0.0030   -0.0522   -0.0059    0.0638   -0.0448    0.0575   -0.0007   -0.0001
  S   H   15   -0.1656   -0.1053   -0.0955   -0.0689   -0.0142    0.0777   -0.0338   -0.2622
  S   H   16   -0.1630   -0.1529    0.0013   -0.1236   -0.0103    0.1555    0.0908    0.0849
  S   H   17   -0.1129   -0.0125   -0.0008    0.0437   -0.0141    0.2020   -0.1524   -0.2346
  S   H   18   -0.0244   -0.0745    0.0329   -0.0379    0.1258    0.3869    0.0465    0.0239
  S   H   19   -0.0258   -0.0859   -0.0180    0.0872    0.1047   -0.1447    0.0349   -0.0969
  S   H   20    0.0262    0.0859   -0.0186    0.0875   -0.1047   -0.1455   -0.0350   -0.0987
  S   H   21    0.0248    0.0738    0.0324   -0.0381   -0.1257    0.3863   -0.0465    0.0252
  S   H   22    0.1643    0.1046   -0.0969   -0.0694    0.0142    0.0773    0.0341   -0.2604
  S   H   23    0.1628    0.1524   -0.0004   -0.1240    0.0102    0.1559   -0.0909    0.0854
  S   H   24    0.1128    0.0124   -0.0019    0.0433    0.0142    0.2015    0.1526   -0.2331


   Root No.      57        58        59        60        61        62        63        64

                22 a1     21 b2     22 b2     23 a1     23 b2     24 a1     24 b2     25 b2  

                 5.890     5.915     5.966     6.076     6.090     6.110     6.140     6.225
  
  S   C    1    0.0488   -0.0564   -0.2787    0.0756   -0.0267    0.2375   -0.2233    0.0319
  Px  C    1   -0.0279   -0.0314   -0.1012    0.1292    0.0089    0.1336   -0.0638   -0.2516
  Py  C    1    0.1649   -0.1450   -0.0334   -0.0677   -0.0587    0.1275   -0.1041   -0.1269
  Pz  C    1    0.0435   -0.0406   -0.0133   -0.0128   -0.0155    0.0402   -0.0309   -0.0452
  S   C    2    0.1381   -0.2260    0.2592   -0.2734   -0.0394    0.1118   -0.1297    0.0113
  Px  C    2    0.0420   -0.0718    0.0548   -0.2124   -0.0199    0.0186   -0.0867    0.3203
  Py  C    2    0.0372    0.0300    0.0194    0.0031   -0.0150   -0.1866    0.1823   -0.0273
  Pz  C    2    0.0120    0.0049    0.0077   -0.0085   -0.0049   -0.0497    0.0456    0.0065
  S   C    3    0.0137   -0.1438   -0.1330   -0.0902   -0.0621   -0.2484    0.2293    0.1531
  Px  C    3    0.0237    0.1060   -0.0100    0.1017    0.0149   -0.1458    0.1446   -0.0566
  Py  C    3   -0.0828    0.2395   -0.0850    0.1005    0.0558    0.1450   -0.1671    0.1528
  Pz  C    3   -0.0214    0.0695   -0.0235    0.0317    0.0157    0.0330   -0.0391    0.0390
  S   C    4    0.0657    0.0726   -0.0261    0.0390    0.1097   -0.0364    0.0755   -0.0489
  Px  C    4   -0.0323    0.0453    0.1853    0.0499   -0.0344    0.0496   -0.0615   -0.1876
  Py  C    4   -0.1014   -0.1435    0.0167   -0.1625    0.0157   -0.0071    0.0439   -0.0233
  Pz  C    4   -0.0291   -0.0370    0.0124   -0.0421    0.0029    0.0002    0.0093   -0.0143
  S   C    5    0.0359    0.1730    0.0936    0.0728   -0.0278   -0.0182   -0.0085    0.0142
  Px  C    5    0.0430   -0.0454   -0.1255    0.0359   -0.0058   -0.0286    0.0058    0.1657
  Py  C    5    0.0259    0.0807    0.0065   -0.0562    0.0696   -0.0554    0.0998    0.0414
  Pz  C    5    0.0089    0.0201   -0.0034   -0.0138    0.0186   -0.0163    0.0274    0.0182
  S   C    6   -0.1867   -0.1366    0.0390    0.0812    0.0470   -0.0080    0.0500   -0.1726
  Px  C    6    0.0065    0.1442    0.1054    0.0235    0.0261   -0.0969    0.1134   -0.0539
  Py  C    6   -0.1308   -0.0469   -0.0464    0.1037    0.0538   -0.0379    0.0404    0.1030
  Pz  C    6   -0.0353   -0.0067   -0.0081    0.0292    0.0157   -0.0144    0.0158    0.0256
  S   C    7    0.0306   -0.1736   -0.0931    0.0693    0.0339   -0.0194    0.0094   -0.0122
  Px  C    7   -0.0259   -0.0795   -0.1131   -0.0548   -0.0450   -0.0024   -0.0454    0.1219
  Py  C    7    0.0430   -0.0495    0.0552   -0.0239   -0.0618   -0.0592   -0.0903   -0.1160
  Pz  C    7    0.0107   -0.0167    0.0105   -0.0087   -0.0186   -0.0163   -0.0264   -0.0268
  S   C    8    0.0655   -0.0750    0.0256    0.0509   -0.1045   -0.0335   -0.0757    0.0476
  Px  C    8   -0.0184    0.1121    0.1538   -0.1182   -0.0515   -0.0436   -0.0765   -0.1524
  Py  C    8   -0.1010    0.1056   -0.1041   -0.1175   -0.0091    0.0167   -0.0101    0.1085
  Pz  C    8   -0.0284    0.0333   -0.0223   -0.0368   -0.0046    0.0029   -0.0058    0.0236
  S   C    9   -0.2528    0.0878   -0.2184   -0.1408   -0.2564    0.0512    0.0849    0.1416
  Px  C    9    0.2283   -0.0761   -0.2218    0.1334    0.1508   -0.0384    0.0674    0.1263
  Py  C    9    0.0754    0.0217   -0.0591    0.0129    0.3491   -0.0038    0.0186    0.0251
  Pz  C    9    0.0300    0.0029   -0.0253    0.0090    0.1017   -0.0026    0.0078    0.0120
  S   C   10   -0.2585   -0.0808    0.2184   -0.1643    0.2383    0.0478   -0.0858   -0.1426
  Px  C   10   -0.1627   -0.0726   -0.1640   -0.1060   -0.0546    0.0311    0.0488    0.0969
  Py  C   10    0.1815    0.0126    0.1584    0.1144   -0.3648   -0.0114   -0.0482   -0.0822
  Pz  C   10    0.0430    0.0004    0.0365    0.0269   -0.1021   -0.0019   -0.0111   -0.0184
  S   C   11   -0.1822    0.1409   -0.0393    0.0851   -0.0399   -0.0078   -0.0497    0.1716
  Px  C   11   -0.0670    0.1521    0.1154    0.0310   -0.0008    0.0659    0.0799   -0.0961
  Py  C   11   -0.1110   -0.0255   -0.0094    0.1082   -0.0528   -0.0777   -0.0892   -0.0620
  Pz  C   11   -0.0327   -0.0012    0.0019    0.0306   -0.0144   -0.0187   -0.0212   -0.0207
  S   C   12    0.0499    0.0573    0.2781    0.0710    0.0396    0.2368    0.2259   -0.0296
  Px  C   12    0.1067    0.0420   -0.0711   -0.1488    0.0214   -0.0535   -0.0054   -0.1561
  Py  C   12    0.1336    0.1383    0.0764   -0.0034    0.0537    0.1729    0.1219    0.2296
  Pz  C   12    0.0406    0.0395    0.0183   -0.0066    0.0155    0.0454    0.0333    0.0567
  S   C   13    0.1437    0.2210   -0.2597   -0.2774    0.0167    0.1087    0.1278   -0.0127
  Px  C   13   -0.0201   -0.0776    0.0375    0.1872    0.0073   -0.1091   -0.1665    0.2895
  Py  C   13    0.0526    0.0074   -0.0424   -0.1003    0.0092   -0.1525   -0.1184   -0.1309
  Pz  C   13    0.0135   -0.0011   -0.0100   -0.0201    0.0028   -0.0460   -0.0389   -0.0247
  S   C   14    0.0167    0.1452    0.1352   -0.0934    0.0465   -0.2464   -0.2312   -0.1539
  Px  C   14   -0.0622   -0.0252    0.0327   -0.0384   -0.0153    0.1989    0.2108   -0.1227
  Py  C   14   -0.0669   -0.2581    0.0784    0.1413   -0.0422    0.0579    0.0783   -0.1029
  Pz  C   14   -0.0207   -0.0716    0.0227    0.0371   -0.0121    0.0235    0.0296   -0.0330
  S   H   15   -0.1249    0.1461    0.2879   -0.0950    0.0496   -0.3211    0.2521    0.2067
  S   H   16   -0.1239    0.2249   -0.2325    0.3650    0.0373   -0.1339    0.2003   -0.2698
  S   H   17   -0.1011    0.2892    0.0291    0.1153    0.1060    0.3267   -0.3302    0.0346
  S   H   18    0.2258    0.1913    0.0294   -0.1205   -0.0832    0.0191   -0.0587    0.0250
  S   H   19    0.3770   -0.0910   -0.0188    0.1811    0.4926   -0.0734   -0.0203   -0.0059
  S   H   20    0.3860    0.0803    0.0189    0.2298   -0.4674   -0.0621    0.0214    0.0071
  S   H   21    0.2196   -0.1975   -0.0301   -0.1283    0.0737    0.0171    0.0576   -0.0265
  S   H   22   -0.1284   -0.1446   -0.2862   -0.0869   -0.0684   -0.3187   -0.2547   -0.2064
  S   H   23   -0.1295   -0.2212    0.2323    0.3682   -0.0047   -0.1320   -0.1989    0.2682
  S   H   24   -0.1072   -0.2879   -0.0316    0.1226   -0.0881    0.3266    0.3339   -0.0308


   Root No.      65        66

                25 a1     26 b2  

                 6.247     6.336
  
  S   C    1   -0.0474   -0.0103
  Px  C    1    0.2055    0.0251
  Py  C    1    0.1819   -0.1571
  Pz  C    1    0.0581   -0.0415
  S   C    2    0.0522   -0.1056
  Px  C    2   -0.2634    0.0099
  Py  C    2    0.0685   -0.0544
  Pz  C    2    0.0072   -0.0144
  S   C    3   -0.0345   -0.0336
  Px  C    3    0.0385   -0.0061
  Py  C    3   -0.2351    0.1093
  Pz  C    3   -0.0621    0.0294
  S   C    4    0.0984   -0.0951
  Px  C    4    0.0775    0.0486
  Py  C    4    0.1476   -0.0875
  Pz  C    4    0.0435   -0.0218
  S   C    5   -0.1606    0.0541
  Px  C    5   -0.1351    0.0064
  Py  C    5    0.0416   -0.1498
  Pz  C    5    0.0057   -0.0404
  S   C    6    0.1054    0.2621
  Px  C    6    0.0347   -0.0479
  Py  C    6   -0.2004    0.2768
  Pz  C    6   -0.0528    0.0731
  S   C    7   -0.1608   -0.0542
  Px  C    7    0.1396    0.0803
  Py  C    7   -0.0303    0.1277
  Pz  C    7   -0.0028    0.0379
  S   C    8    0.0988    0.0950
  Px  C    8    0.0042    0.0861
  Py  C    8    0.1671    0.0532
  Pz  C    8    0.0459    0.0180
  S   C    9    0.0829    0.0043
  Px  C    9   -0.0656   -0.0603
  Py  C    9   -0.0070   -0.0694
  Pz  C    9   -0.0046   -0.0215
  S   C   10    0.0802   -0.0037
  Px  C   10    0.0549   -0.0177
  Py  C   10   -0.0373    0.0892
  Pz  C   10   -0.0079    0.0236
  S   C   11    0.1076   -0.2624
  Px  C   11   -0.1304   -0.1803
  Py  C   11   -0.1584   -0.2186
  Pz  C   11   -0.0483   -0.0663
  S   C   12   -0.0465    0.0100
  Px  C   12   -0.0911    0.1000
  Py  C   12    0.2604    0.1251
  Pz  C   12    0.0676    0.0380
  S   C   13    0.0515    0.1057
  Px  C   13    0.2666    0.0359
  Py  C   13   -0.0694    0.0427
  Pz  C   13   -0.0088    0.0130
  S   C   14   -0.0369    0.0338
  Px  C   14   -0.1512   -0.0598
  Py  C   14   -0.1870   -0.0927
  Pz  C   14   -0.0571   -0.0277
  S   H   15   -0.2005    0.0885
  S   H   16    0.1922    0.0472
  S   H   17   -0.1757    0.1077
  S   H   18    0.0926   -0.4561
  S   H   19   -0.0922   -0.0746
  S   H   20   -0.0902    0.0739
  S   H   21    0.0915    0.4569
  S   H   22   -0.2039   -0.0885
  S   H   23    0.1953   -0.0472
  S   H   24   -0.1748   -0.1081


              NET ATOMIC CHARGES AND DIPOLE CONTRIBUTIONS

  ATOM NO.   TYPE          CHARGE      No. of ELECS.   s-Pop       p-Pop       
    1          C          -0.142012        4.1420     1.08248     3.05953
    2          C          -0.146458        4.1465     1.08254     3.06392
    3          C          -0.149700        4.1497     1.08460     3.06510
    4          C          -0.007702        4.0077     1.06272     2.94498
    5          C          -0.012062        4.0121     1.06481     2.94725
    6          C          -0.152350        4.1524     1.08376     3.06859
    7          C          -0.012104        4.0121     1.06485     2.94725
    8          C          -0.007682        4.0077     1.06282     2.94486
    9          C          -0.152607        4.1526     1.08518     3.06743
   10          C          -0.152648        4.1526     1.08521     3.06743
   11          C          -0.152298        4.1523     1.08373     3.06857
   12          C          -0.142013        4.1420     1.08247     3.05954
   13          C          -0.146443        4.1464     1.08261     3.06384
   14          C          -0.149703        4.1497     1.08461     3.06509
   15          H           0.150503        0.8495     0.84950
   16          H           0.149611        0.8504     0.85039
   17          H           0.152363        0.8476     0.84764
   18          H           0.153738        0.8463     0.84626
   19          H           0.156665        0.8433     0.84333
   20          H           0.156740        0.8433     0.84326
   21          H           0.153727        0.8463     0.84627
   22          H           0.150469        0.8495     0.84953
   23          H           0.149618        0.8504     0.85038
   24          H           0.152347        0.8477     0.84765
 DIPOLE           X         Y         Z       TOTAL
 POINT-CHG.     0.004     0.011     0.007     0.013
 HYBRID        -0.002    -0.009    -0.003     0.009
 SUM            0.001     0.002     0.005     0.005


          ATOMIC ORBITAL ELECTRON POPULATIONS

     Atom    s        px        py        pz   
    1  C   1.08248   1.03144   1.02665   1.00144
    2  C   1.08254   1.07124   0.99406   0.99862
    3  C   1.08460   0.98646   1.07064   1.00800
    4  C   1.06272   0.97646   0.97673   0.99179
    5  C   1.06481   0.96873   0.98369   0.99483
    6  C   1.08376   0.99002   1.06844   1.01012
    7  C   1.06485   0.96959   0.98288   0.99479
    8  C   1.06282   0.97765   0.97550   0.99171
    9  C   1.08518   1.03738   1.02354   1.00651
   10  C   1.08521   0.99349   1.06612   1.00782
   11  C   1.08373   1.03275   1.02702   1.00880
   12  C   1.08247   0.99204   1.06477   1.00272
   13  C   1.08261   1.07234   0.99287   0.99863
   14  C   1.08461   1.02233   1.03590   1.00686
   15  H   0.84950
   16  H   0.85039
   17  H   0.84764
   18  H   0.84626
   19  H   0.84333
   20  H   0.84326
   21  H   0.84627
   22  H   0.84953
   23  H   0.85038
   24  H   0.84765

           DATA FOR GRAPH WRITTEN TO DISK

 **********************
 *                    *
 * JOB ENDED NORMALLY *
 *                    *
 **********************



 TOTAL JOB TIME:             2.19 SECONDS

 == MOPAC DONE ==
