 *******************************************************************************
 **                                                                           **
 **                              MOPAC v22.1.0                                **
 **                                                                           **
 *******************************************************************************
 **          Digital Object Identifier (DOI): 10.5281/zenodo.6511958          **
 **    Visit the DOI location for information on how to cite this program.    **
 *******************************************************************************

                              PM7 CALCULATION RESULTS

 *******************************************************************************
 *  CALCULATION DONE:                                Tue Jan 23 16:07:09 2024  *
 *  PM7        - The PM7 Hamiltonian to be used
 *  SINGLET    - SPIN STATE DEFINED AS A SINGLET
 *
 *
 *
 *                 CHARGE ON SYSTEM = 0
 *
 *
 *
 *  PRECISE    - TIGHTER CRITERIA TO BE USED
 *  T=         - A TIME OF 172800.0 SECONDS REQUESTED
 *  DUMP=N     - RESTART FILE WRITTEN EVERY 7200.0 SECONDS REQUESTED
 *  LARGE      - EXPANDED OUTPUT TO BE PRINTED
 *******************************************************************************
 LARGE CHARGE=0 SINGLET  PM7 PRECISE
 CH3NO2 PM7

   ATOM   CHEMICAL          X               Y               Z
  NUMBER   SYMBOL      (ANGSTROMS)     (ANGSTROMS)     (ANGSTROMS)
 
     1       C         -6.14075000  *  -1.06383000  *  -0.04011000  *
     2       N         -4.68491000  *  -1.06650000  *  -0.11340000  *
     3       H         -6.51319000  *  -1.02619000  *   0.99128000  *
     4       H         -6.54819000  *  -1.96223000  *  -0.51756000  *
     5       H         -6.54819000  *  -0.20261000  *  -0.58177000  *
     6       O         -4.29749000  *  -2.15808000  *   0.65209000  *
     7       O         -4.29749000  *   0.07797000  *   0.57049000  *
 


          CARTESIAN COORDINATES 

    NO.       ATOM           X           Y           Z

     1         C         -6.1407     -1.0638     -0.0401
     2         N         -4.6849     -1.0665     -0.1134
     3         H         -6.5132     -1.0262      0.9913
     4         H         -6.5482     -1.9622     -0.5176
     5         H         -6.5482     -0.2026     -0.5818
     6         O         -4.2975     -2.1581      0.6521
     7         O         -4.2975      0.0780      0.5705

 General Reference for PM7:
 "Optimization of Parameters for Semiempirical Methods VI: More Modifications to the 
 NDDO Approximations and Re-optimization of Parameters", J. J. P. Stewart, J. Mol. Mod., 1:32, 19 (2013)
 https://link.springer.com/article/10.1007/s00894-012-1667-x

           Empirical Formula: C H3 N O2  =     7 atoms



      MOLECULAR POINT GROUP   :   Cs  


 SINGLET STATE CALCULATION


      RHF CALCULATION, NO. OF DOUBLY OCCUPIED LEVELS = 12


          Geometry optimization using EF

          DIAGONAL MATRIX USED AS START HESSIAN

 CYCLE:     1 TIME:   0.031 TIME LEFT:  2.00D  GRAD.:   356.302 HEAT:  57.84960
 CYCLE:     2 TIME:   0.023 TIME LEFT:  2.00D  GRAD.:   146.325 HEAT:  9.613487
 CYCLE:     3 TIME:   0.008 TIME LEFT:  2.00D  GRAD.:   107.119 HEAT: -7.135597
 CYCLE:     4 TIME:   0.020 TIME LEFT:  2.00D  GRAD.:    67.477 HEAT: -10.91441
 CYCLE:     5 TIME:   0.016 TIME LEFT:  2.00D  GRAD.:   112.492 HEAT: -11.43475
 CYCLE:     6 TIME:   0.008 TIME LEFT:  2.00D  GRAD.:    41.968 HEAT: -13.60221
 CYCLE:     7 TIME:   0.008 TIME LEFT:  2.00D  GRAD.:    50.785 HEAT: -14.74816
 CYCLE:     8 TIME:   0.012 TIME LEFT:  2.00D  GRAD.:    21.556 HEAT: -16.49636
 CYCLE:     9 TIME:   0.008 TIME LEFT:  2.00D  GRAD.:    15.682 HEAT: -17.00224
 CYCLE:    10 TIME:   0.012 TIME LEFT:  2.00D  GRAD.:     9.687 HEAT: -17.10012
 CYCLE:    11 TIME:   0.012 TIME LEFT:  2.00D  GRAD.:     3.851 HEAT: -17.15919
 CYCLE:    12 TIME:   0.008 TIME LEFT:  2.00D  GRAD.:     2.698 HEAT: -17.17401
 CYCLE:    13 TIME:   0.008 TIME LEFT:  2.00D  GRAD.:     2.849 HEAT: -17.18247
 CYCLE:    14 TIME:   0.008 TIME LEFT:  2.00D  GRAD.:     1.293 HEAT: -17.18750
 CYCLE:    15 TIME:   0.008 TIME LEFT:  2.00D  GRAD.:     0.765 HEAT: -17.18925
 CYCLE:    16 TIME:   0.008 TIME LEFT:  2.00D  GRAD.:     0.182 HEAT: -17.18977
 CYCLE:    17 TIME:   0.008 TIME LEFT:  2.00D  GRAD.:     0.044 HEAT: -17.18979

     GRADIENT =  0.04444 IS LESS THAN CUTOFF =  0.05000



 -------------------------------------------------------------------------------
 LARGE CHARGE=0 SINGLET  PM7 PRECISE
 CH3NO2 PM7



     GEOMETRY OPTIMISED USING EIGENVECTOR FOLLOWING (EF).     
     SCF FIELD WAS ACHIEVED                                   


                              PM7 CALCULATION
                                                       MOPAC v22.1.0 Windows
                                                       Tue Jan 23 16:07:09 2024




          FINAL HEAT OF FORMATION =        -17.18979 KCAL/MOL =     -71.92209 KJ/MOL


          COSMO AREA              =         87.76 SQUARE ANGSTROMS
          COSMO VOLUME            =         68.70 CUBIC ANGSTROMS

          GRADIENT NORM           =          0.04444          =       0.01680 PER ATOM
          IONIZATION POTENTIAL    =         11.242225 EV
          HOMO LUMO ENERGIES (EV) =        -11.242 -0.098
          NO. OF FILLED LEVELS    =         12
          MOLECULAR WEIGHT        =         61.0402         POINT GROUP:  Cs  

          MOLECULAR DIMENSIONS (Angstroms)

            Atom       Atom       Distance
            O     7    H     4     3.17914
            O     6    H     5     3.09642
            H     3    H     5     1.50995


          SCF CALCULATIONS        =         20
 
          WALL-CLOCK TIME         =      0.270 SECONDS
          COMPUTATION TIME        =      0.828 SECONDS




   ATOM   CHEMICAL          X               Y               Z
  NUMBER   SYMBOL      (ANGSTROMS)     (ANGSTROMS)     (ANGSTROMS)
 
     1       C         -6.20264613  *  -1.06365353  *  -0.03709871  *
     2       N         -4.76549019  *  -1.05117626  *   0.30790351  *
     3       H         -6.80872509  *  -1.02802766  *   0.88695728  *
     4       H         -6.46677949  *  -1.98589534  *  -0.58465609  *
     5       H         -6.46579757  *  -0.18550311  *  -0.65328316  *
     6       O         -4.21635123  *  -2.12270644  *   0.48212061  *
     7       O         -4.21654078  *   0.03021313  *   0.40462882  *

                             CARTESIAN COORDINATES

   1    C       -6.202646134    -1.063653528    -0.037098705
   2    N       -4.765490190    -1.051176257     0.307903507
   3    H       -6.808725089    -1.028027658     0.886957277
   4    H       -6.466779489    -1.985895343    -0.584656088
   5    H       -6.465797575    -0.185503113    -0.653283159
   6    O       -4.216351226    -2.122706440     0.482120610
   7    O       -4.216540780     0.030213133     0.404628823


           Empirical Formula: C H3 N O2  =     7 atoms



      MOLECULAR POINT GROUP   :   Cs  


                  EIGENVALUES  
 -37.37143 -30.77909 -27.79676 -23.20414 -18.26776 -18.21620 -17.92757 -14.91644
 -14.49628 -11.48491 -11.43181 -11.24222  -0.09781   0.56584   3.88505   3.93067
   4.08677   5.00236   5.07478


              NET ATOMIC CHARGES AND DIPOLE CONTRIBUTIONS

  ATOM NO.   TYPE          CHARGE      No. of ELECS.   s-Pop       p-Pop       
    1          C          -0.407891        4.4079     1.08605     3.32184
    2          N           0.634233        4.3658     1.45162     2.91414
    3          H           0.189598        0.8104     0.81040
    4          H           0.189353        0.8106     0.81065
    5          H           0.189354        0.8106     0.81065
    6          O          -0.397303        6.3973     1.94074     4.45656
    7          O          -0.397344        6.3973     1.94074     4.45660
 DIPOLE           X         Y         Z       TOTAL
 POINT-CHG.    -4.234    -0.036    -1.000     4.351
 HYBRID         0.259     0.004     0.092     0.274
 SUM           -3.976    -0.033    -0.908     4.078


          ATOMIC ORBITAL ELECTRON POPULATIONS

     Atom    s        px        py        pz   
    1  C   1.08605   0.92244   1.20921   1.19020
    2  N   1.45162   1.00379   0.97048   0.93988
    3  H   0.81040
    4  H   0.81065
    5  H   0.81065
    6  O   1.94074   1.72794   1.17849   1.55012
    7  O   1.94074   1.72808   1.16546   1.56306
 *******************************************************************************
 **                                                                           **
 **                              MOPAC v22.1.0                                **
 **                                                                           **
 *******************************************************************************
 **          Digital Object Identifier (DOI): 10.5281/zenodo.6511958          **
 **    Visit the DOI location for information on how to cite this program.    **
 *******************************************************************************

                              PM7 CALCULATION RESULTS

 *******************************************************************************
 *  CALCULATION DONE:                                Tue Jan 23 16:07:09 2024  *
 *  PM7        - The PM7 Hamiltonian to be used
 *  SINGLET    - SPIN STATE DEFINED AS A SINGLET
 *
 *
 *
 *                 CHARGE ON SYSTEM = 0
 *
 *
 *
 *  OLDGEO     - PREVIOUS GEOMETRY TO BE USED
 *  PRECISE    - TIGHTER CRITERIA TO BE USED
 *  T=         - A TIME OF 172800.0 SECONDS REQUESTED
 *  DUMP=N     - RESTART FILE WRITTEN EVERY 7200.0 SECONDS REQUESTED
 *  THERMO     - THERMODYNAMIC QUANTITIES TO BE CALCULATED
 *******************************************************************************
OLDGEO CHARGE=0 SINGLET PRECISE PM7 THERMO
 nitrometan

   ATOM   CHEMICAL          X               Y               Z
  NUMBER   SYMBOL      (ANGSTROMS)     (ANGSTROMS)     (ANGSTROMS)
 
     1       C         -6.20264613  *  -1.06365353  *  -0.03709871  *
     2       N         -4.76549019  *  -1.05117626  *   0.30790351  *
     3       H         -6.80872509  *  -1.02802766  *   0.88695728  *
     4       H         -6.46677949  *  -1.98589534  *  -0.58465609  *
     5       H         -6.46579757  *  -0.18550311  *  -0.65328316  *
     6       O         -4.21635123  *  -2.12270644  *   0.48212061  *
     7       O         -4.21654078  *   0.03021313  *   0.40462882  *
 


          CARTESIAN COORDINATES 

    NO.       ATOM           X           Y           Z

     1         C         -6.2026     -1.0637     -0.0371
     2         N         -4.7655     -1.0512      0.3079
     3         H         -6.8087     -1.0280      0.8870
     4         H         -6.4668     -1.9859     -0.5847
     5         H         -6.4658     -0.1855     -0.6533
     6         O         -4.2164     -2.1227      0.4821
     7         O         -4.2165      0.0302      0.4046

 General Reference for PM7:
 "Optimization of Parameters for Semiempirical Methods VI: More Modifications to the 
 NDDO Approximations and Re-optimization of Parameters", J. J. P. Stewart, J. Mol. Mod., 1:32, 19 (2013)
 https://link.springer.com/article/10.1007/s00894-012-1667-x

           Empirical Formula: C H3 N O2  =     7 atoms



      MOLECULAR POINT GROUP   :   Cs  


 SINGLET STATE CALCULATION


      RHF CALCULATION, NO. OF DOUBLY OCCUPIED LEVELS = 12



          HEAT OF FORMATION =     -17.189792 KCALS/MOLE


          CARTESIAN COORDINATE DERIVATIVES

   NUMBER  ATOM         X            Y            Z

     1       C      0.010364    -0.014494    -0.008952
     2       N     -0.021689     0.005306     0.005634
     3       H     -0.004677     0.018139    -0.000837
     4       H     -0.003879    -0.005160     0.006030
     5       H      0.005878     0.000495     0.001939
     6       O      0.010021    -0.002059    -0.000693
     7       O      0.003980    -0.002227    -0.003123
 


          GRADIENT NORM =   0.03914

          MOLECULAR WEIGHT =   61.04



          ROTATIONAL CONSTANTS IN CM(-1)

          A =    0.41759880   B =    0.35028458   C =    0.19766555



           PRINCIPAL MOMENTS OF INERTIA IN UNITS OF 10**(-40)*GRAM-CM**2

          A =       67.0326   B =       79.9143   C =      141.6167


          ORIENTATION OF MOLECULE IN FORCE CALCULATION

    NO.       ATOM         X         Y         Z

     1          C      -1.3913   -0.0024    0.0000
     2          N       0.0867   -0.0024    0.0000
     3          H      -1.7646    1.0383    0.0000
     4          H      -1.7837   -0.5071    0.9008
     5          H      -1.7836   -0.5069   -0.9009
     6          O       0.6523   -0.0013    1.0771
     7          O       0.6522    0.0037   -1.0772


    FIRST DERIVATIVES WILL BE USED IN THE CALCULATION OF SECOND DERIVATIVES

          ESTIMATED TIME TO COMPLETE CALCULATION =        0.98 SECONDS

    FOR POINT-GROUP Cs   THERE ARE   2 UNIQUE SYMMETRY FUNCTIONS.

 STEP:   1 TIME =     0.04 SECS, INTEGRAL =      0.04 TIME LEFT: 172799.95
 STEP:   2 TIME =     0.04 SECS, INTEGRAL =      0.08 TIME LEFT: 172799.91
 STEP:   3 TIME =     0.04 SECS, INTEGRAL =      0.12 TIME LEFT: 172799.87
 STEP:   4 TIME =     0.04 SECS, INTEGRAL =      0.15 TIME LEFT: 172799.84
 STEP:   5 TIME =     0.04 SECS, INTEGRAL =      0.19 TIME LEFT: 172799.80
 STEP:   6 TIME =     0.04 SECS, INTEGRAL =      0.23 TIME LEFT: 172799.75
 STEP:   7 TIME =     0.06 SECS, INTEGRAL =      0.29 TIME LEFT: 172799.70
 STEP:   8 TIME =     0.06 SECS, INTEGRAL =      0.36 TIME LEFT: 172799.63
 STEP:   9 TIME =     0.04 SECS, INTEGRAL =      0.39 TIME LEFT: 172799.60
 STEP:  10 TIME =     0.04 SECS, INTEGRAL =      0.43 TIME LEFT: 172799.56
 STEP:  11 TIME =     0.04 SECS, INTEGRAL =      0.46 TIME LEFT: 172799.52
 STEP:  12 TIME =     0.04 SECS, INTEGRAL =      0.51 TIME LEFT: 172799.48
 STEP:  13                       INTEGRAL =      0.51 TIME LEFT: 172799.48
 STEP:  14                       INTEGRAL =      0.51 TIME LEFT: 172799.48
 STEP:  15                       INTEGRAL =      0.51 TIME LEFT: 172799.48
 STEP:  16 TIME =     0.04 SECS, INTEGRAL =      0.55 TIME LEFT: 172799.44
 STEP:  17 TIME =     0.04 SECS, INTEGRAL =      0.59 TIME LEFT: 172799.40
 STEP:  18 TIME =     0.04 SECS, INTEGRAL =      0.62 TIME LEFT: 172799.37
 STEP:  19                       INTEGRAL =      0.62 TIME LEFT: 172799.37
 STEP:  20                       INTEGRAL =      0.62 TIME LEFT: 172799.37
 STEP:  21                       INTEGRAL =      0.62 TIME LEFT: 172799.37

(To convert to Hartree/Bohr^2, multiply by (10^(-21) x N x a0^2)/(4.184 x 627.51) =  0.0642)


           FORCE MATRIX IN MILLIDYNES/ANGSTROM


                  C  1       N  2       H  3       H  4       H  5       O  6
 ------------------------------------------------------------------------------
     C    1  11.595046
     N    2   3.454503  20.932698
     H    3   3.308714   0.862908   4.102978
     H    4   3.337844   0.856062   0.439487   4.132794
     H    5   3.338604   0.855788   0.439258   0.432079   4.132794
     O    6   1.263576  10.407593   0.077111   0.075207   0.072561  12.824057
     O    7   1.263468  10.407735   0.077057   0.072706   0.075095   2.193888


                  O  7
 ------------------
     O    7  12.824057


          HEAT OF FORMATION =     -17.189792 KCALS/MOLE

          ZERO POINT ENERGY      28.989 KCAL/MOL


           NORMAL COORDINATE ANALYSIS (Total motion = 1 Angstrom)


   Root No.       1         2         3         4         5         6         7         8

                 1 A"      2 A"      1 A'      2 A'      3 A'      3 A"      4 A'      4 A"  

                  81.6     467.2     582.3     642.1    1050.7    1114.2    1119.4    1252.3
  
           1    0.0000   -0.0000   -0.0110    0.1449    0.2119   -0.0000   -0.0171    0.0000
           2    0.0000   -0.0002   -0.0058   -0.0026   -0.0171   -0.0002   -0.0792    0.0001
           3   -0.0003    0.0890   -0.0000    0.0000   -0.0000    0.0887   -0.0002   -0.0391
           4    0.0000    0.0000   -0.0063    0.1027   -0.1307   -0.0000    0.0058    0.0000
           5    0.0000    0.0002    0.1874    0.0233    0.0146   -0.0000    0.0648   -0.0000
           6   -0.0012   -0.0704    0.0004    0.0001    0.0000   -0.0007    0.0001   -0.0001
           7   -0.0000   -0.0000   -0.2894    0.1228    0.1982    0.0000    0.3792   -0.0000
           8   -0.0007   -0.0004   -0.1209   -0.0107    0.0178    0.0003    0.1020   -0.0009
           9    0.3247    0.1729   -0.0003   -0.0000    0.0000   -0.1174    0.0003    0.4127
          10    0.0048    0.1568    0.1192    0.1524    0.1132   -0.3490   -0.1811   -0.1500
          11   -0.2695    0.0156   -0.1271   -0.0111    0.0351   -0.0137    0.1222    0.2244
          12   -0.1497    0.1792   -0.0032    0.0006    0.0164   -0.1100    0.0169    0.0378
          13   -0.0047   -0.1568    0.1192    0.1524    0.1132    0.3490   -0.1811    0.1500
          14    0.2702   -0.0164   -0.1271   -0.0111    0.0352    0.0144    0.1222   -0.2246
          15   -0.1485    0.1791    0.0026   -0.0007   -0.0163   -0.1098   -0.0164    0.0368
          16   -0.0015   -0.0932    0.0085   -0.1128   -0.0357   -0.0206    0.0034    0.0013
          17    0.0285   -0.0009   -0.0680   -0.0084   -0.0025    0.0004   -0.0096   -0.0004
          18   -0.0001   -0.0193   -0.0071    0.1137   -0.1027   -0.0224    0.0054   -0.0006
          19    0.0015    0.0932    0.0085   -0.1128   -0.0357    0.0206    0.0033   -0.0013
          20   -0.0285    0.0010   -0.0681   -0.0079   -0.0030   -0.0003   -0.0095    0.0004
          21   -0.0003   -0.0193    0.0068   -0.1138    0.1027   -0.0224   -0.0055   -0.0006


   Root No.       9        10        11        12        13        14        15

                 5 A'      6 A'      7 A'      5 A"      8 A'      6 A"      9 A'  

                1261.4    1371.4    1502.8    1794.9    2637.9    2646.8    2753.1
  
           1    0.0060   -0.0611   -0.0177    0.0000   -0.0007    0.0000    0.0223
           2   -0.0363   -0.0017   -0.0030    0.0001   -0.0489    0.0001   -0.0001
           3   -0.0001   -0.0000   -0.0000   -0.0338   -0.0001   -0.0555    0.0000
           4   -0.0019    0.0161    0.1999   -0.0000    0.0005    0.0000    0.0086
           5   -0.0041   -0.0018    0.0017   -0.0008   -0.0021    0.0000   -0.0000
           6   -0.0000   -0.0000    0.0000    0.3328   -0.0000   -0.0030    0.0000
           7   -0.2137    0.2266   -0.1383   -0.0000   -0.1842    0.0000   -0.1114
           8   -0.0992    0.0974   -0.0853   -0.0001    0.4412    0.0001    0.2975
           9   -0.0003    0.0002   -0.0002    0.0479    0.0010   -0.0264    0.0006
          10    0.0475    0.2863   -0.1483    0.1251    0.0954   -0.1846   -0.1205
          11    0.2924   -0.0259    0.0549   -0.0038    0.0882   -0.2169   -0.1490
          12    0.1975    0.1354   -0.0684    0.0573   -0.1961    0.3569    0.2613
          13    0.0476    0.2864   -0.1483   -0.1251    0.0953    0.1845   -0.1204
          14    0.2933   -0.0253    0.0546    0.0035    0.0873    0.2153   -0.1478
          15   -0.1961   -0.1354    0.0686    0.0573    0.1965    0.3580   -0.2620
          16    0.0023   -0.0093   -0.0672   -0.0706   -0.0002    0.0008   -0.0010
          17    0.0001    0.0001   -0.0001   -0.0002   -0.0002    0.0000    0.0001
          18    0.0049   -0.0180   -0.1200   -0.1381   -0.0001    0.0004   -0.0013
          19    0.0023   -0.0093   -0.0672    0.0706   -0.0001   -0.0008   -0.0010
          20    0.0001   -0.0001   -0.0007    0.0008   -0.0002   -0.0000   -0.0000
          21   -0.0049    0.0180    0.1200   -0.1381    0.0001    0.0004    0.0013


           MASS-WEIGHTED COORDINATE ANALYSIS (NORMAL COORDINATES)


   Root No.       1         2         3         4         5         6         7         8

                 1 A"      2 A"      1 A'      2 A'      3 A'      3 A"      4 A'      4 A"  

                  81.6     467.2     582.3     642.1    1050.7    1114.2    1119.4    1252.3
  
           1    0.0000   -0.0000   -0.0424    0.4415    0.6615   -0.0001   -0.0942    0.0000
           2    0.0000   -0.0010   -0.0223   -0.0080   -0.0534   -0.0009   -0.4370    0.0006
           3   -0.0019    0.3985   -0.0001    0.0000   -0.0001    0.4809   -0.0009   -0.2326
           4    0.0000    0.0000   -0.0263    0.3380   -0.4405   -0.0000    0.0346    0.0000
           5    0.0000    0.0008    0.7809    0.0766    0.0491   -0.0000    0.3862   -0.0000
           6   -0.0077   -0.3403    0.0018    0.0002    0.0001   -0.0040    0.0009   -0.0006
           7   -0.0001   -0.0000   -0.3235    0.1084    0.1792    0.0001    0.6060   -0.0001
           8   -0.0013   -0.0005   -0.1351   -0.0095    0.0161    0.0005    0.1630   -0.0016
           9    0.5726    0.2241   -0.0004   -0.0000    0.0000   -0.1845    0.0005    0.7107
          10    0.0084    0.2033    0.1332    0.1345    0.1024   -0.5484   -0.2894   -0.2583
          11   -0.4754    0.0202   -0.1420   -0.0098    0.0318   -0.0216    0.1952    0.3865
          12   -0.2640    0.2323   -0.0036    0.0006    0.0148   -0.1728    0.0271    0.0651
          13   -0.0084   -0.2033    0.1332    0.1345    0.1024    0.5484   -0.2895    0.2583
          14    0.4766   -0.0213   -0.1421   -0.0098    0.0318    0.0226    0.1954   -0.3867
          15   -0.2619    0.2322    0.0029   -0.0006   -0.0147   -0.1725   -0.0262    0.0634
          16   -0.0103   -0.4815    0.0378   -0.3968   -0.1287   -0.1292    0.0214    0.0089
          17    0.2003   -0.0045   -0.3030   -0.0296   -0.0090    0.0023   -0.0609   -0.0026
          18   -0.0010   -0.0999   -0.0314    0.4000   -0.3702   -0.1400    0.0344   -0.0043
          19    0.0103    0.4816    0.0379   -0.3967   -0.1287    0.1292    0.0212   -0.0089
          20   -0.2003    0.0051   -0.3031   -0.0278   -0.0107   -0.0019   -0.0608    0.0025
          21   -0.0019   -0.0998    0.0301   -0.4002    0.3702   -0.1400   -0.0348   -0.0043


   Root No.       9        10        11        12        13        14        15

                 5 A'      6 A'      7 A'      5 A"      8 A'      6 A"      9 A'  

                1261.4    1371.4    1502.8    1794.9    2637.9    2646.8    2753.1
  
           1    0.0361   -0.3703   -0.0548    0.0000   -0.0042    0.0000    0.1365
           2   -0.2194   -0.0105   -0.0092    0.0001   -0.2781    0.0008   -0.0003
           3   -0.0006   -0.0001   -0.0001   -0.0759   -0.0007   -0.2840    0.0000
           4   -0.0122    0.1052    0.6678   -0.0001    0.0030    0.0000    0.0571
           5   -0.0270   -0.0120    0.0057   -0.0019   -0.0126    0.0000   -0.0002
           6   -0.0001   -0.0000    0.0001    0.8082   -0.0000   -0.0163    0.0000
           7   -0.3741    0.3982   -0.1239   -0.0000   -0.3038    0.0000   -0.1976
           8   -0.1737    0.1712   -0.0764   -0.0001    0.7276    0.0001    0.5277
           9   -0.0005    0.0004   -0.0002    0.0312    0.0016   -0.0391    0.0011
          10    0.0832    0.5031   -0.1328    0.0815    0.1573   -0.2738   -0.2136
          11    0.5118   -0.0456    0.0492   -0.0025    0.1455   -0.3217   -0.2642
          12    0.3456    0.2379   -0.0613    0.0373   -0.3233    0.5294    0.4634
          13    0.0833    0.5031   -0.1328   -0.0815    0.1572    0.2736   -0.2135
          14    0.5134   -0.0445    0.0489    0.0023    0.1440    0.3194   -0.2622
          15   -0.3433   -0.2380    0.0615    0.0373    0.3240    0.5309   -0.4646
          16    0.0161   -0.0650   -0.2397   -0.1831   -0.0010    0.0050   -0.0074
          17    0.0007    0.0004   -0.0005   -0.0005   -0.0012    0.0001    0.0005
          18    0.0345   -0.1260   -0.4285   -0.3585   -0.0006    0.0025   -0.0090
          19    0.0162   -0.0650   -0.2398    0.1832   -0.0009   -0.0050   -0.0074
          20    0.0009   -0.0005   -0.0024    0.0021   -0.0012   -0.0003   -0.0003
          21   -0.0344    0.1260    0.4285   -0.3584    0.0007    0.0025    0.0090


          DESCRIPTION OF VIBRATIONS


 VIBRATION          1    1A"         ATOM PAIR     ENERGY CONTRIBUTION    RADIAL
 FREQUENCY            81.59         C 1 -- H 3         +34.4% (652.2%)      0.0%
 TRANSITION DIPOLE   0.0281         C 1 -- H 5         +32.6% (634.8%)      0.0%
 TRAVEL (Ang.)       0.0000         C 1 -- H 4         +32.6% (634.8%)      0.0%
 REDUCED MASS        0.3365         N 2 -- O 7          +0.2% ( 48.8%)      0.0%
 EFFECTIVE MASS      1.2633
 FORCE CONSTANT      0.0013

 VIBRATION          2    2A"         ATOM PAIR     ENERGY CONTRIBUTION    RADIAL
 FREQUENCY           467.19         C 1 -- N 2         +28.5% (144.8%)      0.0%
 TRANSITION DIPOLE   0.1476         O 6 -- O 7         +17.4% (112.9%)      0.0%
 TRAVEL (Ang.)       0.2461         N 2 -- O 6         +11.8% ( 93.3%)      0.0%
 REDUCED MASS        2.3839         N 2 -- O 7         +11.8% ( 93.3%)      0.0%
 EFFECTIVE MASS     17.9995         C 1 -- H 5         +10.5% ( 87.9%)     67.9%
 FORCE CONSTANT      0.3066         C 1 -- H 4         +10.5% ( 87.9%)     68.1%

 VIBRATION          3    1A'         ATOM PAIR     ENERGY CONTRIBUTION    RADIAL
 FREQUENCY           582.35         N 2 -- O 6         +27.2% ( 94.4%)      0.0%
 TRANSITION DIPOLE   0.4238         N 2 -- O 7         +27.2% ( 94.4%)      0.0%
 TRAVEL (Ang.)       0.1448         C 1 -- N 2         +22.9% ( 86.5%)      0.0%
 REDUCED MASS        5.5230         C 1 -- H 3         +13.0% ( 65.3%)      0.1%
 EFFECTIVE MASS     14.0731
 FORCE CONSTANT      1.1035

 VIBRATION          4    2A'         ATOM PAIR     ENERGY CONTRIBUTION    RADIAL
 FREQUENCY           642.11         O 6 -- O 7         +17.9% ( 80.4%)    100.0%
 TRANSITION DIPOLE   1.5315         C 1 -- N 2         +15.9% ( 75.8%)     59.9%
 TRAVEL (Ang.)       0.1640         N 2 -- O 6         +14.9% ( 73.4%)      0.0%
 REDUCED MASS        3.9022         N 2 -- O 7         +14.9% ( 73.4%)      0.0%
 EFFECTIVE MASS     15.7661         C 1 -- H 5         +12.2% ( 66.3%)     12.9%
 FORCE CONSTANT      0.9479         C 1 -- H 4         +12.2% ( 66.3%)     12.9%
                            C 1 -- H 3         +12.0% ( 65.7%)     11.1%

 VIBRATION          5    3A'         ATOM PAIR     ENERGY CONTRIBUTION    RADIAL
 FREQUENCY          1050.69         C 1 -- N 2         +28.8% ( 90.2%)     99.1%
 TRANSITION DIPOLE   1.4310         O 6 -- O 7         +15.1% ( 65.3%)    100.0%
 TRAVEL (Ang.)       0.1330         C 1 -- H 5         +12.8% ( 60.2%)      9.2%
 REDUCED MASS        3.6272         C 1 -- H 4         +12.8% ( 60.2%)      9.2%
 EFFECTIVE MASS     13.2636         C 1 -- H 3         +12.7% ( 60.0%)     21.9%
 FORCE CONSTANT      2.3592

 VIBRATION          6    3A"         ATOM PAIR     ENERGY CONTRIBUTION    RADIAL
 FREQUENCY          1114.22         C 1 -- H 4         +33.8% ( 77.0%)     14.8%
 TRANSITION DIPOLE   0.1594         C 1 -- H 5         +33.7% ( 77.0%)     14.7%
 TRAVEL (Ang.)       0.2584         C 1 -- H 3         +14.1% ( 49.8%)      0.0%
 REDUCED MASS        0.9067         C 1 -- N 2         +10.5% ( 43.0%)      0.0%
 EFFECTIVE MASS      4.4237
 FORCE CONSTANT      0.6632

 VIBRATION          7    4A'         ATOM PAIR     ENERGY CONTRIBUTION    RADIAL
 FREQUENCY          1119.44         C 1 -- H 3         +39.0% ( 76.6%)     12.7%
 TRANSITION DIPOLE   0.6944         C 1 -- H 5         +18.8% ( 53.2%)      9.0%
 TRAVEL (Ang.)       0.2474         C 1 -- H 4         +18.8% ( 53.2%)      8.8%
 REDUCED MASS        0.9840         C 1 -- N 2         +15.9% ( 49.0%)      2.4%
 EFFECTIVE MASS      4.5661
 FORCE CONSTANT      0.7265

 VIBRATION          8    4A"         ATOM PAIR     ENERGY CONTRIBUTION    RADIAL
 FREQUENCY          1252.31         C 1 -- H 3         +49.2% ( 60.9%)      0.0%
 TRANSITION DIPOLE   0.5582         C 1 -- H 5         +23.1% ( 41.8%)      8.0%
 TRAVEL (Ang.)       0.3715         C 1 -- H 4         +23.1% ( 41.8%)      8.2%
 REDUCED MASS        0.3901         C 1 -- N 2          +4.5% ( 18.5%)      0.0%
 EFFECTIVE MASS      1.4861
 FORCE CONSTANT      0.3604

 VIBRATION          9    5A'         ATOM PAIR     ENERGY CONTRIBUTION    RADIAL
 FREQUENCY          1261.36         C 1 -- H 5         +38.9% ( 53.8%)      0.8%
 TRANSITION DIPOLE   0.6765         C 1 -- H 4         +38.9% ( 53.8%)      0.7%
 TRAVEL (Ang.)       0.3840         C 1 -- H 3         +17.9% ( 36.5%)     19.4%
 REDUCED MASS        0.3626         C 1 -- N 2          +3.5% ( 16.0%)      5.9%
 EFFECTIVE MASS      1.4559
 FORCE CONSTANT      0.3399

 VIBRATION         10    6A'         ATOM PAIR     ENERGY CONTRIBUTION    RADIAL
 FREQUENCY          1371.38         C 1 -- H 4         +30.8% ( 58.2%)      1.2%
 TRANSITION DIPOLE   0.8684         C 1 -- H 5         +30.8% ( 58.2%)      1.2%
 TRAVEL (Ang.)       0.3226         C 1 -- H 3         +21.1% ( 48.1%)      1.3%
 REDUCED MASS        0.4724         C 1 -- N 2          +8.6% ( 30.7%)    100.0%
 EFFECTIVE MASS      2.9355
 FORCE CONSTANT      0.5235

 VIBRATION         11    7A'         ATOM PAIR     ENERGY CONTRIBUTION    RADIAL
 FREQUENCY          1502.84         N 2 -- O 6         +31.9% ( 75.3%)     63.8%
 TRANSITION DIPOLE   2.2897         N 2 -- O 7         +31.9% ( 75.3%)     63.7%
 TRAVEL (Ang.)       0.0983         O 6 -- O 7         +18.3% ( 57.0%)    100.0%
 REDUCED MASS        4.6466         C 1 -- N 2         +15.4% ( 52.2%)    100.0%
 EFFECTIVE MASS     13.9768
 FORCE CONSTANT      6.1832

 VIBRATION         12    5A"         ATOM PAIR     ENERGY CONTRIBUTION    RADIAL
 FREQUENCY          1794.91         N 2 -- O 7         +35.6% ( 84.1%)     89.6%
 TRANSITION DIPOLE   7.1533         N 2 -- O 6         +35.6% ( 84.1%)     89.6%
 TRAVEL (Ang.)       0.0742         C 1 -- N 2         +22.2% ( 66.4%)      0.0%
 REDUCED MASS        6.8154         O 6 -- O 7          +5.9% ( 34.3%)      0.0%
 EFFECTIVE MASS     14.3179
 FORCE CONSTANT     12.9368

 VIBRATION         13    8A'         ATOM PAIR     ENERGY CONTRIBUTION    RADIAL
 FREQUENCY          2637.87         C 1 -- H 3         +66.0% ( 83.9%)     99.7%
 TRANSITION DIPOLE   0.9544         C 1 -- H 4         +16.6% ( 42.0%)     85.3%
 TRAVEL (Ang.)       0.2245         C 1 -- H 5         +16.6% ( 42.0%)     85.6%
 REDUCED MASS        0.5070         C 1 -- N 2          +0.9% (  9.7%)      0.1%
 EFFECTIVE MASS      1.4482
 FORCE CONSTANT      2.0786

 VIBRATION         14    6A"         ATOM PAIR     ENERGY CONTRIBUTION    RADIAL
 FREQUENCY          2646.83         C 1 -- H 5         +49.0% ( 72.4%)     98.0%
 TRANSITION DIPOLE   0.8497         C 1 -- H 4         +49.0% ( 72.4%)     98.1%
 TRAVEL (Ang.)       0.2252         C 1 -- N 2          +1.0% ( 10.6%)      0.0%
 REDUCED MASS        0.5024         C 1 -- H 3          +1.0% ( 10.3%)      0.0%
 EFFECTIVE MASS      1.4774
 FORCE CONSTANT      2.0735

 VIBRATION         15    9A'         ATOM PAIR     ENERGY CONTRIBUTION    RADIAL
 FREQUENCY          2753.15         C 1 -- H 4         +33.7% ( 55.5%)     95.3%
 TRANSITION DIPOLE   0.6752         C 1 -- H 5         +33.7% ( 55.5%)     95.3%
 TRAVEL (Ang.)       0.2742         C 1 -- H 3         +32.2% ( 54.3%)     95.2%
 REDUCED MASS        0.3257         C 1 -- N 2          +0.2% (  4.7%)    100.0%
 EFFECTIVE MASS      1.1361
 FORCE CONSTANT      1.4544

      SYMMETRY NUMBER FOR POINT-GROUP Cs  =  1


          SYSTEM IS A GROUND STATE



 nitrometan


          MOLECULE IS NOT LINEAR

          THERE ARE 15 GENUINE VIBRATIONS IN THIS SYSTEM
          THIS THERMODYNAMICS CALCULATION IS LIMITED TO
          MOLECULES WHICH HAVE NO INTERNAL ROTATIONS




                    CALCULATED THERMODYNAMIC PROPERTIES
                                          *
   TEMP. (K)   PARTITION FUNCTION   H.O.F.    ENTHALPY  HEAT CAPACITY ENTROPY
                                   KCAL/MOL   CAL/MOLE    CAL/K/MOL  CAL/K/MOL


 298.00  VIB.     0.3909D+01                   906.6782     6.7104     5.7515
         ROT.     0.3107D+05                   888.2803     2.9808    23.5365
         INT.     0.1214D+06                  1794.9585     9.6913    29.2880
         TRA.     0.4611D+27                  1480.4672     4.9680    38.2443
         TOT.                      -17.190    3275.4257    14.6593    67.5323

 200.00  VIB.     0.2396D+01                   388.8740     3.9351     3.6812
         ROT.     0.1708D+05                   596.1613     2.9808    22.3478
         INT.     0.4094D+05                   985.0352     6.9159    26.0290
         TRA.     0.2535D+27                   993.6021     4.9680    36.2632
         TOT.                      -18.487    1978.6374    11.8839    62.2922

 210.00  VIB.     0.2517D+01                   429.5130     4.1939     3.8794
         ROT.     0.1838D+05                   625.9693     2.9808    22.4933
         INT.     0.4626D+05                  1055.4823     7.1747    26.3727
         TRA.     0.2727D+27                  1043.2822     4.9680    36.5056
         TOT.                      -18.366    2098.7646    12.1427    62.8783

 220.00  VIB.     0.2643D+01                   472.7742     4.4595     4.0806
         ROT.     0.1971D+05                   655.7774     2.9808    22.6319
         INT.     0.5210D+05                  1128.5516     7.4403    26.7126
         TRA.     0.2925D+27                  1092.9623     4.9680    36.7367
         TOT.                      -18.244    2221.5139    12.4083    63.4492

 230.00  VIB.     0.2777D+01                   518.7236     4.7314     4.2848
         ROT.     0.2107D+05                   685.5855     2.9808    22.7644
         INT.     0.5850D+05                  1204.3091     7.7123    27.0493
         TRA.     0.3126D+27                  1142.6424     4.9680    36.9575
         TOT.                      -18.118    2346.9516    12.6803    64.0068

 240.00  VIB.     0.2918D+01                   567.4228     5.0093     4.4921
         ROT.     0.2246D+05                   715.3935     2.9808    22.8913
         INT.     0.6552D+05                  1282.8164     7.9901    27.3833
         TRA.     0.3332D+27                  1192.3226     4.9680    37.1690
         TOT.                      -17.990    2475.1389    12.9581    64.5523

 250.00  VIB.     0.3066D+01                   618.9283     5.2926     4.7023
         ROT.     0.2387D+05                   745.2016     2.9808    23.0130
         INT.     0.7321D+05                  1364.1299     8.2734    27.7152
         TRA.     0.3543D+27                  1242.0027     4.9680    37.3718
         TOT.                      -17.859    2606.1326    13.2414    65.0870

 260.00  VIB.     0.3223D+01                   673.2916     5.5808     4.9155
         ROT.     0.2532D+05                   775.0097     2.9808    23.1299
         INT.     0.8162D+05                  1448.3013     8.5616    28.0453
         TRA.     0.3757D+27                  1291.6828     4.9680    37.5666
         TOT.                      -17.725    2739.9840    13.5296    65.6120

 270.00  VIB.     0.3390D+01                   730.5589     5.8733     5.1315
         ROT.     0.2680D+05                   804.8177     2.9808    23.2424
         INT.     0.9083D+05                  1535.3766     8.8541    28.3739
         TRA.     0.3976D+27                  1341.3629     4.9680    37.7541
         TOT.                      -17.588    2876.7395    13.8221    66.1280

 280.00  VIB.     0.3565D+01                   790.7706     6.1696     5.3505
         ROT.     0.2830D+05                   834.6258     2.9808    23.3508
         INT.     0.1009D+06                  1625.3963     9.1504    28.7013
         TRA.     0.4199D+27                  1391.0430     4.9680    37.9348
         TOT.                      -17.449    3016.4393    14.1184    66.6361

 290.00  VIB.     0.3752D+01                   853.9613     6.4690     5.5722
         ROT.     0.2983D+05                   864.4339     2.9808    23.4554
         INT.     0.1119D+06                  1718.3952     9.4498    29.0276
         TRA.     0.4426D+27                  1440.7231     4.9680    38.1091
         TOT.                      -17.306    3159.1183    14.4178    67.1367

 300.00  VIB.     0.3949D+01                   920.1597     6.7710     5.7966
         ROT.     0.3138D+05                   894.2419     2.9808    23.5564
         INT.     0.1239D+06                  1814.4016     9.7518    29.3530
         TRA.     0.4657D+27                  1490.4032     4.9680    38.2776
         TOT.                      -17.160    3304.8048    14.7198    67.6306

 310.00  VIB.     0.4158D+01                   989.3882     7.0750     6.0236
         ROT.     0.3297D+05                   924.0500     2.9808    23.6542
         INT.     0.1371D+06                  1913.4381    10.0558    29.6777
         TRA.     0.4892D+27                  1540.0833     4.9680    38.4405
         TOT.                      -17.012    3453.5214    15.0238    68.1182

 320.00  VIB.     0.4380D+01                  1061.6633     7.3802     6.2530
         ROT.     0.3457D+05                   953.8580     2.9808    23.7488
         INT.     0.1514D+06                  2015.5213    10.3610    30.0018
         TRA.     0.5130D+27                  1589.7634     4.9680    38.5982
         TOT.                      -16.860    3605.2847    15.3291    68.6000

 330.00  VIB.     0.4616D+01                  1136.9956     7.6863     6.4848
         ROT.     0.3621D+05                   983.6661     2.9808    23.8405
         INT.     0.1671D+06                  2120.6617    10.6671    30.3253
         TRA.     0.5373D+27                  1639.4435     4.9680    38.7511
         TOT.                      -16.705    3760.1052    15.6351    69.0764

 340.00  VIB.     0.4866D+01                  1215.3902     7.9926     6.7188
         ROT.     0.3787D+05                  1013.4742     2.9808    23.9295
         INT.     0.1842D+06                  2228.8644    10.9734    30.6483
         TRA.     0.5619D+27                  1689.1236     4.9680    38.8994
         TOT.                      -16.547    3917.9880    15.9414    69.5477

 350.00  VIB.     0.5131D+01                  1296.8467     8.2986     6.9549
         ROT.     0.3955D+05                  1043.2822     2.9808    24.0159
         INT.     0.2029D+06                  2340.1290    11.2794    30.9708
         TRA.     0.5868D+27                  1738.8037     4.9680    39.0434
         TOT.                      -16.386    4078.9327    16.2474    70.0142

 360.00  VIB.     0.5413D+01                  1381.3599     8.6038     7.1930
         ROT.     0.4126D+05                  1073.0903     2.9808    24.0999
         INT.     0.2233D+06                  2454.4502    11.5847    31.2929
         TRA.     0.6122D+27                  1788.4838     4.9680    39.1833
         TOT.                      -16.222    4242.9340    16.5527    70.4762

 370.00  VIB.     0.5712D+01                  1468.9197     8.9079     7.4328
         ROT.     0.4299D+05                  1102.8984     2.9808    24.1816
         INT.     0.2455D+06                  2571.8180    11.8887    31.6144
         TRA.     0.6379D+27                  1838.1639     4.9680    39.3195
         TOT.                      -16.055    4409.9820    16.8567    70.9339

 380.00  VIB.     0.6030D+01                  1559.5119     9.2103     7.6744
         ROT.     0.4474D+05                  1132.7064     2.9808    24.2611
         INT.     0.2698D+06                  2692.2184    12.1911    31.9355
         TRA.     0.6639D+27                  1887.8440     4.9680    39.4519
         TOT.                      -15.885    4580.0624    17.1591    71.3874

 390.00  VIB.     0.6368D+01                  1653.1186     9.5107     7.9176
         ROT.     0.4652D+05                  1162.5145     2.9808    24.3385
         INT.     0.2962D+06                  2815.6331    12.4915    32.2561
         TRA.     0.6903D+27                  1937.5242     4.9680    39.5810
         TOT.                      -15.712    4753.1573    17.4595    71.8370

 400.00  VIB.     0.6727D+01                  1749.7183     9.8088     8.1621
         ROT.     0.4832D+05                  1192.3226     2.9808    24.4140
         INT.     0.3250D+06                  2942.0408    12.7896    32.5761
         TRA.     0.7170D+27                  1987.2043     4.9680    39.7068
         TOT.                      -15.536    4929.2451    17.7576    72.2828

   *: NOTE: HEATS OF FORMATION ARE RELATIVE TO THE
            ELEMENTS IN THEIR STANDARD STATE AT 298K
              (=  Standard Enthalpy of Formation).

            Hvib:  Zero-point energy is not included.
                   frequencies of less than zero cm-1 are not included.
            Hrot = (3/2)RT
            Htra = (3/2)RT + pV = (5/2)RT

            Heat capacity is Cp, not Cv

          For more information, see: HTTP://OpenMOPAC.net/Manual/thermochemistry.html


           FORCE CONSTANT IN CARTESIAN COORDINATES (Millidynes/A)

    ATOM   CHEMICAL       X               Y               Z
   NUMBER   SYMBOL  FORCE CONSTANT  FORCE CONSTANT  FORCE CONSTANT

      1       C        6.957265        6.069957        7.006974
      2       N       10.858852        3.312122       17.588625
      3       H        1.205205        3.533247        0.511642
      4       H        1.311533        1.259624        2.782093
      5       H        1.311019        1.247925        2.794306
      6       O        3.794661        0.349687       10.433013
      7       O        3.796929        0.349900       10.430532

 **********************
 *                    *
 * JOB ENDED NORMALLY *
 *                    *
 **********************



 TOTAL JOB TIME:             1.21 SECONDS

 == MOPAC DONE ==
