 *******************************************************************************
 **                                                                           **
 **                              MOPAC v22.1.0                                **
 **                                                                           **
 *******************************************************************************
 **          Digital Object Identifier (DOI): 10.5281/zenodo.6511958          **
 **    Visit the DOI location for information on how to cite this program.    **
 *******************************************************************************

                              PM7 CALCULATION RESULTS

 *******************************************************************************
 *  CALCULATION DONE:                                Sat Jan 13 21:28:25 2024  *
 *  PM7        - The PM7 Hamiltonian to be used
 *  SINGLET    - SPIN STATE DEFINED AS A SINGLET
 *  RHF        - RESTRICTED HARTREE-FOCK CALCULATION
 *
 *
 *
 *                 CHARGE ON SYSTEM = 0
 *
 *
 *
 *  PRECISE    - TIGHTER CRITERIA TO BE USED
 *  T=         - A TIME OF 172800.0 SECONDS REQUESTED
 *  DUMP=N     - RESTART FILE WRITTEN EVERY 7200.0 SECONDS REQUESTED
 *  LARGE      - EXPANDED OUTPUT TO BE PRINTED
 *  GRAPH      - GENERATE FILE FOR GRAPHICS
 *  ALLVEC     - PRINT ALL EIGENVECTORS
 *******************************************************************************
  LARGE CHARGE=0 SINGLET  PM7 PRECISE  GRAPHF ALLVEC RHF
 P4 (biely fosfor)

   ATOM   CHEMICAL          X               Y               Z
  NUMBER   SYMBOL      (ANGSTROMS)     (ANGSTROMS)     (ANGSTROMS)
 
     1       P         -6.19695000  *  -0.13481000  *  -0.17820000  *
     2       P         -4.49112000  *   1.25152000  *  -0.04768000  *
     3       P         -4.14294000  *  -0.92252000  *  -0.08148000  *
     4       P         -4.84225000  *   0.10887000  *  -1.89697000  *
 


          CARTESIAN COORDINATES 

    NO.       ATOM           X           Y           Z

     1         P         -6.1970     -0.1348     -0.1782
     2         P         -4.4911      1.2515     -0.0477
     3         P         -4.1429     -0.9225     -0.0815
     4         P         -4.8422      0.1089     -1.8970

 General Reference for PM7:
 "Optimization of Parameters for Semiempirical Methods VI: More Modifications to the 
 NDDO Approximations and Re-optimization of Parameters", J. J. P. Stewart, J. Mol. Mod., 1:32, 19 (2013)
 https://link.springer.com/article/10.1007/s00894-012-1667-x

           Empirical Formula: P4  =     4 atoms



      MOLECULAR POINT GROUP   :   Td  


 SINGLET STATE CALCULATION


      RHF CALCULATION, NO. OF DOUBLY OCCUPIED LEVELS = 10


          Geometry optimization using EF

          DIAGONAL MATRIX USED AS START HESSIAN

 CYCLE:     1 TIME:   0.094 TIME LEFT:  2.00D  GRAD.:   251.942 HEAT:  41.08687
 CYCLE:     2 TIME:   0.062 TIME LEFT:  2.00D  GRAD.:    52.783 HEAT:  24.64586
 CYCLE:     3 TIME:   0.055 TIME LEFT:  2.00D  GRAD.:    17.068 HEAT:  23.30527
 CYCLE:     4 TIME:   0.062 TIME LEFT:  2.00D  GRAD.:     6.392 HEAT:  23.13142
 CYCLE:     5 TIME:   0.062 TIME LEFT:  2.00D  GRAD.:     0.737 HEAT:  23.11057
 CYCLE:     6 TIME:   0.055 TIME LEFT:  2.00D  GRAD.:     0.312 HEAT:  23.11000
 CYCLE:     7 TIME:   0.078 TIME LEFT:  2.00D  GRAD.:     0.174 HEAT:  23.10991
 CYCLE:     8 TIME:   0.062 TIME LEFT:  2.00D  GRAD.:     0.008 HEAT:  23.10987

     GRADIENT =  0.00840 IS LESS THAN CUTOFF =  0.05000



 -------------------------------------------------------------------------------
 LARGE CHARGE=0 SINGLET  PM7 PRECISE  GRAPHF ALLVEC RHF
 P4 (biely fosfor)



     GEOMETRY OPTIMISED USING EIGENVECTOR FOLLOWING (EF).     
     SCF FIELD WAS ACHIEVED                                   


                              PM7 CALCULATION
                                                       MOPAC v22.1.0 Windows
                                                       Sat Jan 13 21:28:26 2024




          FINAL HEAT OF FORMATION =         23.10987 KCAL/MOL =      96.69168 KJ/MOL


          COSMO AREA              =        119.87 SQUARE ANGSTROMS
          COSMO VOLUME            =        114.10 CUBIC ANGSTROMS

          GRADIENT NORM           =          0.00840          =       0.00420 PER ATOM
          IONIZATION POTENTIAL    =         11.287767 EV
          HOMO LUMO ENERGIES (EV) =        -11.288 -1.581
          NO. OF FILLED LEVELS    =         10
          MOLECULAR WEIGHT        =        123.8950         POINT GROUP:  Td  

          MOLECULAR DIMENSIONS (Angstroms)

            Atom       Atom       Distance
            P     3    P     1     2.32790
            P     4    P     2     2.32788
            P     1    P     4     1.64606


          SCF CALCULATIONS        =          9
 
          WALL-CLOCK TIME         =      0.633 SECONDS
          COMPUTATION TIME        =      1.703 SECONDS




   ATOM   CHEMICAL          X               Y               Z
  NUMBER   SYMBOL      (ANGSTROMS)     (ANGSTROMS)     (ANGSTROMS)
 
     1       P         -6.27005211  *  -0.14684221  *  -0.15687122  *
     2       P         -4.46670595  *   1.31872921  *  -0.01890000  *
     3       P         -4.09860261  *  -0.97959647  *  -0.05464309  *
     4       P         -4.83789934  *   0.11076947  *  -1.97391570  *

                             CARTESIAN COORDINATES

   1    P       -6.270052110    -0.146842214    -0.156871216
   2    P       -4.466705945     1.318729209    -0.018899996
   3    P       -4.098602608    -0.979596467    -0.054643085
   4    P       -4.837899337     0.110769472    -1.973915703


           Empirical Formula: P4  =     4 atoms



      MOLECULAR POINT GROUP   :   Td  


                EIGENVECTORS  


   Root No.       1         2         3         4         5         6         7         8

                 1 a1      1 t2      1 t2      1 t2      2 t2      2 t2      2 t2      2 a1  

               -63.934   -44.748   -44.748   -44.748   -13.763   -13.763   -13.763   -12.481
  
  S   P    1    0.4384   -0.5411   -0.1430   -0.5734    0.0511   -0.2062   -0.0192   -0.2304
  Px  P    1    0.2102    0.0580   -0.0477    0.0458    0.0489    0.4437    0.0735    0.4198
  Py  P    1    0.0346   -0.1312    0.0595    0.1235   -0.3227   -0.0428    0.3757    0.0691
  Pz  P    1   -0.0613   -0.0386   -0.1730    0.0537    0.3728   -0.0652    0.3184   -0.1224
  x2  P    1    0.0705    0.0503   -0.0199    0.0109    0.0360   -0.0276    0.0097    0.0234
  xz  P    1   -0.0422   -0.0289   -0.0848    0.0165    0.0221    0.0233    0.0374   -0.0141
  z2  P    1   -0.0358   -0.0035    0.0646   -0.0400    0.0045    0.0185    0.0080   -0.0119
  yz  P    1   -0.0070   -0.0003   -0.0173   -0.0006    0.0335    0.0146   -0.0293   -0.0023
  xy  P    1    0.0239   -0.0723    0.0357    0.0774   -0.0083   -0.0165    0.0251    0.0079
  S   P    2    0.4384   -0.3436   -0.0852    0.7188    0.0219    0.0966   -0.1889   -0.2304
  Px  P    2   -0.0702    0.1550   -0.0223    0.0951    0.2944   -0.2871   -0.2725   -0.1402
  Py  P    2   -0.1933   -0.0713    0.0746    0.0398   -0.2026    0.1878   -0.3675   -0.3860
  Pz  P    2   -0.0827   -0.0419   -0.1743   -0.0129    0.3464    0.3473    0.0294   -0.1653
  x2  P    2   -0.0532   -0.0760    0.0344   -0.0002   -0.0302   -0.0179    0.0167   -0.0177
  xz  P    2    0.0191   -0.0075    0.0264   -0.0120   -0.0444    0.0237   -0.0035    0.0063
  z2  P    2   -0.0271    0.0116    0.0824    0.0316   -0.0021   -0.0017    0.0138   -0.0090
  yz  P    2    0.0524    0.0289    0.0693   -0.0096   -0.0116   -0.0232   -0.0422    0.0174
  xy  P    2    0.0445   -0.0695    0.0095   -0.0590    0.0051    0.0377   -0.0047    0.0148
  S   P    3    0.4384    0.6063   -0.5193   -0.0694   -0.2022    0.0173    0.0657   -0.2303
  Px  P    3   -0.1274    0.0836    0.0200    0.1368   -0.2516   -0.3786    0.1600   -0.2545
  Py  P    3    0.1641   -0.0480    0.0030    0.1295    0.3760   -0.2423    0.1469    0.3277
  Pz  P    3   -0.0772   -0.0948   -0.1510    0.0328   -0.0019    0.2142    0.4433   -0.1541
  x2  P    3   -0.0175   -0.0098   -0.0110   -0.1126    0.0047    0.0182   -0.0181   -0.0058
  xz  P    3    0.0323    0.0118    0.0435   -0.0199   -0.0271    0.0208   -0.0378    0.0107
  z2  P    3   -0.0296    0.0655    0.0536   -0.0140    0.0148    0.0056   -0.0029   -0.0098
  yz  P    3   -0.0415   -0.0248   -0.0640    0.0025    0.0265    0.0395    0.0053   -0.0138
  xy  P    3   -0.0686    0.0466   -0.0054    0.0180    0.0220   -0.0262   -0.0341   -0.0228
  S   P    4    0.4384    0.2785    0.7475   -0.0760    0.1292    0.0923    0.1425   -0.2304
  Px  P    4   -0.0125    0.1355   -0.0331    0.1312    0.2959   -0.3997    0.0283   -0.0250
  Py  P    4   -0.0054   -0.1190    0.0601    0.1378   -0.2733   -0.1755    0.3779   -0.0108
  Pz  P    4    0.2212   -0.0185   -0.0629    0.0172   -0.2612   -0.2206   -0.2882    0.4419
  x2  P    4    0.0002   -0.0152    0.0028   -0.0271    0.0073   -0.0317    0.0141    0.0001
  xz  P    4   -0.0091    0.0801   -0.0168    0.0760    0.0215   -0.0374   -0.0019   -0.0030
  z2  P    4    0.0925   -0.0127   -0.0474    0.0158    0.0287    0.0156    0.0316    0.0308
  yz  P    4   -0.0039   -0.0714    0.0373    0.0826   -0.0228   -0.0149    0.0274   -0.0013
  xy  P    4    0.0002   -0.0210    0.0079    0.0020    0.0288   -0.0003   -0.0258    0.0001


   Root No.       9        10        11        12        13        14        15        16

                 1 e       1 e       1 t1      1 t1      1 t1      3 t2      3 t2      3 t2  

               -11.288   -11.288    -1.581    -1.581    -1.581    -0.774    -0.774    -0.774
  
  S   P    1    0.0000   -0.0000   -0.0000   -0.0000    0.0000    0.1218   -0.0937    0.1133
  Px  P    1   -0.0047   -0.1579   -0.1868   -0.0115   -0.0504    0.4957   -0.2655    0.4233
  Py  P    1   -0.4260    0.2447    0.3917    0.2126   -0.4056   -0.1383   -0.1034    0.2570
  Pz  P    1   -0.2567   -0.4032   -0.4191    0.0806   -0.4021   -0.0763    0.3369    0.0178
  x2  P    1    0.0160    0.0223    0.0137    0.0052   -0.0081   -0.0187    0.0107   -0.0049
  xz  P    1    0.0161    0.0114    0.0264   -0.0049    0.0249    0.0036   -0.0194    0.0004
  z2  P    1    0.0187    0.0330   -0.0266    0.0048   -0.0247    0.0119    0.0168    0.0183
  yz  P    1   -0.0414    0.0271    0.0028   -0.0020    0.0066    0.0084   -0.0018   -0.0071
  xy  P    1   -0.0027    0.0118   -0.0329   -0.0174    0.0329    0.0160    0.0095   -0.0208
  S   P    2    0.0000   -0.0000    0.0000    0.0000   -0.0000    0.0569   -0.0159   -0.1816
  Px  P    2    0.4487    0.1458    0.1543    0.3742   -0.4136    0.1846   -0.0468    0.3071
  Py  P    2   -0.0773   -0.2310   -0.0706   -0.2878   -0.0381   -0.2982   -0.0371    0.5846
  Pz  P    2   -0.2003    0.4157    0.0340    0.3545    0.4399   -0.0473    0.2904    0.2487
  x2  P    2   -0.0201    0.0144    0.0100    0.0294   -0.0165    0.0232   -0.0041   -0.0083
  xz  P    2    0.0345    0.0316    0.0012    0.0069    0.0046   -0.0077    0.0028    0.0031
  z2  P    2    0.0196   -0.0283    0.0020    0.0252    0.0341    0.0041    0.0272   -0.0092
  yz  P    2   -0.0248    0.0078    0.0017    0.0179    0.0223    0.0002    0.0123    0.0147
  xy  P    2    0.0024   -0.0228    0.0106    0.0264   -0.0272    0.0168    0.0005    0.0186
  S   P    3    0.0000   -0.0000    0.0000   -0.0000   -0.0000   -0.1747   -0.0748    0.0188
  Px  P    3   -0.1203    0.3888   -0.4392   -0.2102    0.1099    0.4606    0.0416    0.1479
  Py  P    3    0.1257    0.3098   -0.1708   -0.3690    0.0537   -0.4840   -0.1983    0.2480
  Pz  P    3    0.4660    0.0168    0.3622   -0.4375   -0.0675    0.1439    0.3372    0.0755
  x2  P    3    0.0046   -0.0129   -0.0361   -0.0349    0.0097    0.0018   -0.0101    0.0271
  xz  P    3    0.0183    0.0371    0.0096   -0.0141   -0.0017    0.0054    0.0099   -0.0042
  z2  P    3   -0.0349    0.0060    0.0278   -0.0297   -0.0053   -0.0173    0.0211    0.0085
  yz  P    3   -0.0118    0.0318   -0.0170    0.0208    0.0032   -0.0082   -0.0133   -0.0086
  xy  P    3    0.0296   -0.0011    0.0121    0.0025   -0.0029   -0.0184   -0.0079   -0.0038
  S   P    4    0.0000   -0.0000   -0.0000    0.0000   -0.0000   -0.0040    0.1844    0.0495
  Px  P    4   -0.3237   -0.3766    0.4716   -0.1525    0.3541    0.2271   -0.0828    0.1665
  Py  P    4    0.3776   -0.3236   -0.1503    0.4442    0.3901   -0.1825   -0.0799    0.2129
  Pz  P    4   -0.0090   -0.0292    0.0229    0.0023    0.0296   -0.0072    0.7053    0.2059
  x2  P    4    0.0114    0.0490    0.0124    0.0003    0.0149    0.0087   -0.0042    0.0162
  xz  P    4    0.0055    0.0067   -0.0372    0.0121   -0.0278   -0.0181    0.0059   -0.0134
  z2  P    4    0.0003    0.0006   -0.0032   -0.0004   -0.0041   -0.0006   -0.0249   -0.0091
  yz  P    4   -0.0017    0.0017    0.0125   -0.0367   -0.0321    0.0160    0.0065   -0.0186
  xy  P    4    0.0493   -0.0120    0.0102   -0.0115   -0.0028    0.0160    0.0018   -0.0055


   Root No.      17        18        19        20        21        22        23        24

                 3 a1      4 t2      4 t2      4 t2      5 t2      5 t2      5 t2      2 e   

                83.554    87.614    87.615    87.615    95.182    95.182    95.182   107.072
  
  S   P    1   -0.0686    0.0271    0.0040   -0.0304   -0.1211   -0.0189    0.0964   -0.0000
  Px  P    1   -0.0664    0.0171    0.0209   -0.0234   -0.0362    0.0065    0.0262    0.0131
  Py  P    1   -0.0109    0.0445   -0.0181    0.0306    0.0177   -0.0125    0.0313   -0.0203
  Pz  P    1    0.0194    0.0060    0.0501    0.0241    0.0147    0.0353    0.0048    0.0335
  x2  P    1    0.3714   -0.0474   -0.3493   -0.0285   -0.0446   -0.0309    0.2567    0.0791
  xz  P    1   -0.2227   -0.1379   -0.3634   -0.2067    0.0690   -0.2711   -0.1576   -0.1033
  z2  P    1   -0.1889   -0.0211   -0.2152   -0.0774    0.1337    0.4623    0.0966    0.3965
  yz  P    1   -0.0367    0.3960   -0.2527    0.3149   -0.1109    0.0098   -0.1689    0.1548
  xy  P    1    0.1257   -0.1716   -0.0307   -0.1372   -0.3653    0.1856   -0.3147    0.2241
  S   P    2   -0.0686    0.0190    0.0047    0.0360    0.1280    0.0319    0.0831    0.0000
  Px  P    2    0.0222   -0.0526    0.0093    0.0148    0.0037    0.0107   -0.0371   -0.0121
  Py  P    2    0.0610   -0.0011   -0.0285   -0.0279   -0.0321   -0.0258   -0.0156    0.0192
  Pz  P    2    0.0261    0.0070    0.0487   -0.0239   -0.0290    0.0261    0.0025   -0.0345
  x2  P    2   -0.2802    0.0279    0.2980   -0.0158    0.0256    0.1484   -0.3753   -0.0239
  xz  P    2    0.1004   -0.4188    0.3667    0.1592   -0.0164   -0.0205    0.1332    0.1602
  z2  P    2   -0.1426   -0.0713   -0.1203    0.0728   -0.2983    0.4091    0.1609   -0.4014
  yz  P    2    0.2764    0.2638    0.2800   -0.2135    0.0497    0.2471    0.1039   -0.0967
  xy  P    2    0.2346   -0.1983   -0.2182    0.1015    0.2441    0.2547   -0.2403   -0.2272
  S   P    3   -0.0686   -0.0291    0.0285   -0.0039   -0.0292    0.1179   -0.0977   -0.0000
  Px  P    3    0.0402   -0.0026   -0.0234    0.0448    0.0345   -0.0203    0.0073   -0.0322
  Py  P    3   -0.0518   -0.0122    0.0268    0.0346    0.0162    0.0360   -0.0156   -0.0257
  Pz  P    3    0.0244    0.0448    0.0308    0.0086    0.0022    0.0104    0.0374   -0.0014
  x2  P    3   -0.0923    0.0115    0.0488    0.1547    0.5396    0.0576   -0.0139   -0.3785
  xz  P    3    0.1701    0.1681    0.2083    0.4786   -0.1203    0.1171    0.0335    0.2312
  z2  P    3   -0.1560   -0.1375   -0.1078    0.0446   -0.0436    0.2545    0.4522    0.0454
  yz  P    3   -0.2189   -0.2755   -0.1990    0.3297   -0.0769   -0.2500   -0.0934    0.2155
  xy  P    3   -0.3615    0.2459    0.3077   -0.0409   -0.0629   -0.1848    0.1018    0.0553
  S   P    4   -0.0686   -0.0170   -0.0372   -0.0017    0.0223   -0.1309   -0.0817    0.0000
  Px  P    4    0.0039   -0.0373    0.0172    0.0401    0.0248    0.0201   -0.0204    0.0312
  Py  P    4    0.0017    0.0361   -0.0175    0.0411    0.0275   -0.0092    0.0243    0.0268
  Pz  P    4   -0.0699   -0.0147   -0.0290    0.0019    0.0087   -0.0377   -0.0247    0.0024
  x2  P    4    0.0011    0.1306   -0.0389   -0.4565    0.3184    0.1146   -0.0978    0.4267
  xz  P    4   -0.0478    0.2521   -0.1093   -0.2696   -0.2950   -0.1876    0.2683   -0.1647
  z2  P    4    0.4875    0.0391    0.0476   -0.0334   -0.0071   -0.2326   -0.1227   -0.0244
  yz  P    4   -0.0208   -0.2033    0.1007   -0.2342   -0.3534    0.1391   -0.2982   -0.1762
  xy  P    4    0.0012    0.4268   -0.2027    0.1759   -0.0887    0.1492   -0.2644   -0.0865


   Root No.      25        26        27        28        29        30        31        32

                 2 e       3 e       3 e       2 t1      2 t1      2 t1      6 t2      6 t2  

               107.072   116.620   116.620   117.640   117.640   117.640   117.842   117.842
  
  S   P    1   -0.0000   -0.0000    0.0000    0.0000   -0.0000    0.0000   -0.0020    0.0009
  Px  P    1   -0.0004    0.0003    0.0095    0.0022    0.0061   -0.0153    0.0181   -0.0158
  Py  P    1   -0.0353    0.0255   -0.0147    0.0416   -0.0070    0.0298    0.0194    0.0040
  Pz  P    1   -0.0213    0.0154    0.0242    0.0312    0.0171   -0.0355   -0.0058   -0.0165
  x2  P    1   -0.1736    0.0267    0.2621   -0.1110    0.0498   -0.1605    0.3841   -0.1683
  xz  P    1    0.0054    0.2767    0.3328    0.2781    0.1508   -0.3131   -0.2622    0.0441
  z2  P    1   -0.2327   -0.0101    0.0017   -0.2457   -0.1382    0.2896   -0.2120    0.2548
  yz  P    1    0.3084   -0.2648    0.2388    0.0498    0.0277   -0.0578    0.0307    0.0307
  xy  P    1    0.2625    0.3188   -0.1125    0.4648   -0.0795    0.3371    0.2586   -0.0076
  S   P    2   -0.0000   -0.0000   -0.0000   -0.0000   -0.0000   -0.0000   -0.0011    0.0003
  Px  P    2    0.0372   -0.0269   -0.0087    0.0438    0.0146    0.0182   -0.0232    0.0016
  Py  P    2   -0.0064    0.0046    0.0138   -0.0040   -0.0188   -0.0170   -0.0040    0.0113
  Pz  P    2   -0.0166    0.0120   -0.0249   -0.0279    0.0314    0.0242   -0.0032   -0.0190
  x2  P    2    0.2955    0.0745    0.2726   -0.2735   -0.2114   -0.2193   -0.0630    0.0388
  xz  P    2   -0.2330    0.2525    0.3060    0.0082   -0.0920   -0.0798   -0.0046   -0.0262
  z2  P    2   -0.2440   -0.0112    0.0830    0.2882   -0.3015   -0.2295   -0.1145    0.2032
  yz  P    2    0.0912   -0.2869    0.2644    0.2139   -0.2219   -0.1687    0.2017    0.0067
  xy  P    2    0.1969    0.3121   -0.0665   -0.4068   -0.1348   -0.1683    0.2621    0.0014
  S   P    3   -0.0000    0.0000    0.0000   -0.0000    0.0000   -0.0000    0.0024    0.0016
  Px  P    3   -0.0100    0.0072   -0.0233   -0.0176    0.0045   -0.0387    0.0091    0.0172
  Py  P    3    0.0104   -0.0075   -0.0186   -0.0142   -0.0191   -0.0258   -0.0196   -0.0158
  Pz  P    3    0.0387   -0.0279   -0.0010   -0.0011   -0.0482    0.0090    0.0200   -0.0106
  x2  P    3   -0.0251    0.0418    0.3086    0.2573    0.1270    0.5198    0.1648    0.0561
  xz  P    3   -0.0224    0.2739    0.2987    0.0245    0.2195    0.0010   -0.2559   -0.1362
  z2  P    3    0.4650    0.0610    0.0375   -0.0004    0.4455   -0.1052    0.1184    0.2946
  yz  P    3   -0.0776   -0.3040    0.2326    0.0025   -0.3175    0.0797    0.3206    0.1666
  xy  P    3   -0.1578    0.2760   -0.0953   -0.0556    0.0710   -0.1353    0.5130    0.3120
  S   P    4    0.0000    0.0000   -0.0000   -0.0000    0.0000    0.0000    0.0007   -0.0028
  Px  P    4   -0.0269    0.0194    0.0226   -0.0284   -0.0253    0.0358   -0.0160   -0.0031
  Py  P    4    0.0313   -0.0226    0.0194   -0.0234    0.0449    0.0130    0.0140    0.0053
  Pz  P    4   -0.0007    0.0005    0.0018   -0.0022   -0.0003    0.0023   -0.0078    0.0310
  x2  P    4   -0.1139    0.0328    0.2267    0.1269    0.0346   -0.1403    0.0603   -0.0070
  xz  P    4    0.1443    0.2909    0.3391   -0.3106   -0.2783    0.3921   -0.0736   -0.0844
  z2  P    4    0.0065    0.0143    0.0446   -0.0420   -0.0060    0.0451   -0.1890    0.7844
  yz  P    4   -0.2086   -0.3174    0.2725   -0.2661    0.5118    0.1469    0.0959    0.0048
  xy  P    4   -0.4134    0.2499   -0.0809   -0.0025    0.1434   -0.0336    0.1237    0.0381


   Root No.      33        34        35        36

                 6 t2      3 t1      3 t1      3 t1  

               117.842   122.260   122.260   122.260
  
  S   P    1   -0.0019   -0.0000    0.0000    0.0000
  Px  P    1    0.0201    0.0007   -0.0002    0.0007
  Py  P    1   -0.0103   -0.0010    0.0029   -0.0005
  Pz  P    1   -0.0149    0.0018    0.0011    0.0021
  x2  P    1    0.4634   -0.2094   -0.1111   -0.2507
  xz  P    1   -0.2714   -0.1465   -0.1928   -0.1989
  z2  P    1   -0.1420   -0.2407   -0.1206   -0.2867
  yz  P    1   -0.1087   -0.2184    0.5502   -0.1257
  xy  P    1    0.0497   -0.0662   -0.0342   -0.0791
  S   P    2    0.0027   -0.0000   -0.0000   -0.0000
  Px  P    2    0.0015    0.0005    0.0029   -0.0003
  Py  P    2    0.0276   -0.0007   -0.0007    0.0012
  Pz  P    2    0.0138    0.0012   -0.0008   -0.0025
  x2  P    2    0.4790    0.0957   -0.1515   -0.2273
  xz  P    2   -0.1814    0.1980    0.4788   -0.2754
  z2  P    2    0.1904   -0.1203    0.1539    0.2769
  yz  P    2   -0.4208    0.0598   -0.3011   -0.1930
  xy  P    2   -0.3198   -0.1142    0.0625    0.2422
  S   P    3   -0.0002    0.0000   -0.0000    0.0000
  Px  P    3   -0.0171    0.0011   -0.0018    0.0015
  Py  P    3   -0.0126   -0.0005   -0.0015    0.0014
  Pz  P    3   -0.0065   -0.0029   -0.0002    0.0005
  x2  P    3    0.1500   -0.0649    0.0386   -0.0275
  xz  P    3   -0.0304   -0.1961   -0.3501    0.3461
  z2  P    3    0.0063    0.3524   -0.0405   -0.0060
  yz  P    3   -0.1031    0.2488   -0.2805    0.2274
  xy  P    3   -0.0884   -0.3784    0.0128    0.0347
  S   P    4   -0.0005   -0.0000   -0.0000   -0.0000
  Px  P    4   -0.0149   -0.0022   -0.0010   -0.0019
  Py  P    4   -0.0162    0.0022   -0.0007   -0.0021
  Pz  P    4    0.0041   -0.0001   -0.0001   -0.0002
  x2  P    4    0.1328    0.1786    0.2240    0.5055
  xz  P    4   -0.0935    0.1446    0.0641    0.1282
  z2  P    4    0.1231    0.0086    0.0072    0.0158
  yz  P    4   -0.1074   -0.0902    0.0314    0.0912
  xy  P    4   -0.0409    0.5588   -0.0412   -0.1978


              NET ATOMIC CHARGES AND DIPOLE CONTRIBUTIONS

  ATOM NO.   TYPE          CHARGE      No. of ELECS.   s-Pop       p-Pop       d-Pop       
    1          P           0.000000        5.0000     1.86566     3.02857     0.10577
    2          P          -0.000002        5.0000     1.86565     3.02857     0.10578
    3          P           0.000002        5.0000     1.86566     3.02857     0.10577
    4          P          -0.000000        5.0000     1.86566     3.02857     0.10577
 DIPOLE           X         Y         Z       TOTAL
 POINT-CHG.     0.000    -0.000     0.000     0.000
 HYBRID         0.000    -0.000     0.000     0.000
 SUM            0.000    -0.000     0.000     0.000


          ATOMIC ORBITAL ELECTRON POPULATIONS

     Atom    s        px        py        pz      x^2-y^2     xz        z^2       yz        xy
    1  P   1.86566   0.91545   1.06089   1.05223   0.02293   0.02622   0.01814   0.01001   0.02848
    2  P   1.86565   1.04826   0.93854   1.04177   0.02444   0.01206   0.02026   0.02382   0.02520
    3  P   1.86566   1.00997   0.97382   1.04478   0.02822   0.01578   0.01967   0.02017   0.02193
    4  P   1.86566   1.06441   1.06484   0.89931   0.00952   0.02903   0.02845   0.02963   0.00915

           DATA FOR GRAPH WRITTEN TO DISK
 *******************************************************************************
 **                                                                           **
 **                              MOPAC v22.1.0                                **
 **                                                                           **
 *******************************************************************************
 **          Digital Object Identifier (DOI): 10.5281/zenodo.6511958          **
 **    Visit the DOI location for information on how to cite this program.    **
 *******************************************************************************

                              PM7 CALCULATION RESULTS

 *******************************************************************************
 *  CALCULATION DONE:                                Sat Jan 13 21:28:26 2024  *
 *  PM7        - The PM7 Hamiltonian to be used
 *  RHF        - RESTRICTED HARTREE-FOCK CALCULATION
 *  OLDGEO     - PREVIOUS GEOMETRY TO BE USED
 *  PRECISE    - TIGHTER CRITERIA TO BE USED
 *  T=         - A TIME OF 172800.0 SECONDS REQUESTED
 *  DUMP=N     - RESTART FILE WRITTEN EVERY 7200.0 SECONDS REQUESTED
 *  THERMO     - THERMODYNAMIC QUANTITIES TO BE CALCULATED
 *******************************************************************************
OLDGEO PRECISE PM7 THERMO RHF
 P4 (biely fosfor)

   ATOM   CHEMICAL          X               Y               Z
  NUMBER   SYMBOL      (ANGSTROMS)     (ANGSTROMS)     (ANGSTROMS)
 
     1       P         -6.27005211  *  -0.14684221  *  -0.15687122  *
     2       P         -4.46670595  *   1.31872921  *  -0.01890000  *
     3       P         -4.09860261  *  -0.97959647  *  -0.05464309  *
     4       P         -4.83789934  *   0.11076947  *  -1.97391570  *
 


          CARTESIAN COORDINATES 

    NO.       ATOM           X           Y           Z

     1         P         -6.2701     -0.1468     -0.1569
     2         P         -4.4667      1.3187     -0.0189
     3         P         -4.0986     -0.9796     -0.0546
     4         P         -4.8379      0.1108     -1.9739

 General Reference for PM7:
 "Optimization of Parameters for Semiempirical Methods VI: More Modifications to the 
 NDDO Approximations and Re-optimization of Parameters", J. J. P. Stewart, J. Mol. Mod., 1:32, 19 (2013)
 https://link.springer.com/article/10.1007/s00894-012-1667-x

           Empirical Formula: P4  =     4 atoms



      MOLECULAR POINT GROUP   :   Td  


      RHF CALCULATION, NO. OF DOUBLY OCCUPIED LEVELS = 10



          HEAT OF FORMATION =      23.109867 KCALS/MOLE


          CARTESIAN COORDINATE DERIVATIVES

   NUMBER  ATOM         X            Y            Z

     1       P      0.000568    -0.004548    -0.001442
     2       P     -0.003086    -0.001511     0.000430
     3       P      0.001371     0.006035    -0.000474
     4       P      0.001147     0.000023     0.001485
 


          GRADIENT NORM =   0.00878


          TIME FOR SCF CALCULATION =    0.02

          TIME FOR DERIVATIVES     =    0.04

          MOLECULAR WEIGHT =  123.90



          ROTATIONAL CONSTANTS IN CM(-1)

          A =    0.10043425   B =    0.10043338   C =    0.10043277



           PRINCIPAL MOMENTS OF INERTIA IN UNITS OF 10**(-40)*GRAM-CM**2

          A =      278.7172   B =      278.7196   C =      278.7213


          ORIENTATION OF MOLECULE IN FORCE CALCULATION

    NO.       ATOM         X         Y         Z

     1          P      -1.1639   -0.6720   -0.4752
     2          P       1.1639   -0.6720   -0.4752
     3          P       0.0000    1.3440   -0.4752
     4          P       0.0000    0.0000    1.4255


    FIRST DERIVATIVES WILL BE USED IN THE CALCULATION OF SECOND DERIVATIVES

          ESTIMATED TIME TO COMPLETE CALCULATION =        3.00 SECONDS

    FOR POINT-GROUP Td   THERE ARE  24 UNIQUE SYMMETRY FUNCTIONS.

 STEP:   1 TIME =     0.37 SECS, INTEGRAL =      0.37 TIME LEFT: 172799.57
 STEP:   2 TIME =     0.30 SECS, INTEGRAL =      0.67 TIME LEFT: 172799.27
 STEP:   3 TIME =     0.34 SECS, INTEGRAL =      1.01 TIME LEFT: 172798.93
 STEP:   4                       INTEGRAL =      1.01 TIME LEFT: 172798.93
 STEP:   5                       INTEGRAL =      1.01 TIME LEFT: 172798.93
 STEP:   6                       INTEGRAL =      1.01 TIME LEFT: 172798.93
 STEP:   7                       INTEGRAL =      1.01 TIME LEFT: 172798.93
 STEP:   8                       INTEGRAL =      1.01 TIME LEFT: 172798.93
 STEP:   9                       INTEGRAL =      1.01 TIME LEFT: 172798.93
 STEP:  10                       INTEGRAL =      1.01 TIME LEFT: 172798.93
 STEP:  11                       INTEGRAL =      1.01 TIME LEFT: 172798.93
 STEP:  12                       INTEGRAL =      1.01 TIME LEFT: 172798.93

(To convert to Hartree/Bohr^2, multiply by (10^(-21) x N x a0^2)/(4.184 x 627.51) =  0.0642)


           FORCE MATRIX IN MILLIDYNES/ANGSTROM


                  P  1       P  2       P  3       P  4
 ------------------------------------------------------
     P    1   4.465100
     P    2   2.183664   4.465100
     P    3   2.184765   2.184765   4.465100
     P    4   2.184332   2.184332   2.184332   4.465100


          HEAT OF FORMATION =      23.109867 KCALS/MOLE

          ZERO POINT ENERGY       4.005 KCAL/MOL


           NORMAL COORDINATE ANALYSIS (Total motion = 1 Angstrom)


   Root No.       1         2         3         4         5         6

                 1 E       1 E       1 T2      1 T2      1 T2      1 A1  

                 354.7     354.7     464.0     464.0     464.0     700.4
  
           1   -0.0109    0.1439    0.2494   -0.1783    0.0736   -0.2041
           2    0.1566   -0.1552    0.1961    0.0929    0.0918   -0.1179
           3   -0.1946   -0.1330    0.1510   -0.0029   -0.1477   -0.0833
           4    0.0109   -0.1439    0.1002    0.2832   -0.0882    0.2041
           5   -0.1313   -0.1771   -0.2077   -0.0283    0.1086   -0.1179
           6    0.2125   -0.1020   -0.1345   -0.0885   -0.1358   -0.0833
           7   -0.2493   -0.0190   -0.1748   -0.0525    0.0073    0.0000
           8   -0.0063    0.0831    0.0605   -0.2301   -0.2540    0.2357
           9   -0.0179    0.2350   -0.0609    0.1884   -0.0660   -0.0833
          10    0.2493    0.0190   -0.1748   -0.0525    0.0073    0.0000
          11   -0.0190    0.2493   -0.0489    0.1655    0.0535    0.0000
          12   -0.0000   -0.0000    0.0445   -0.0970    0.3495    0.2500


           MASS-WEIGHTED COORDINATE ANALYSIS (NORMAL COORDINATES)


   Root No.       1         2         3         4         5         6

                 1 E       1 E       1 T2      1 T2      1 T2      1 A1  

                 354.7     354.7     464.0     464.0     464.0     700.4
  
           1    0.0174    0.2881    0.4861   -0.3412    0.1492   -0.4082
           2    0.2681   -0.3501    0.3764    0.1898    0.1750   -0.2357
           3   -0.4217   -0.2107    0.2925   -0.0070   -0.2847   -0.1667
           4   -0.0174   -0.2882    0.1873    0.5547   -0.1796    0.4082
           5   -0.3082   -0.3153   -0.4012   -0.0567    0.2101   -0.2357
           6    0.3933   -0.2599   -0.2574   -0.1812   -0.2599   -0.1667
           7   -0.4991    0.0301   -0.3367   -0.1067    0.0152    0.0000
           8    0.0100    0.1664    0.1235   -0.4583   -0.4828    0.4714
           9    0.0284    0.4705   -0.1220    0.3657   -0.1342   -0.1667
          10    0.4991   -0.0301   -0.3367   -0.1067    0.0152    0.0000
          11    0.0301    0.4991   -0.0986    0.3252    0.0977    0.0000
          12   -0.0000   -0.0000    0.0869   -0.1775    0.6789    0.5000


          DESCRIPTION OF VIBRATIONS


 VIBRATION          2    1E          ATOM PAIR     ENERGY CONTRIBUTION    RADIAL
 FREQUENCY           354.66         P 1 -- P 2         +20.3% ( 62.6%)     98.9%
 TRANSITION DIPOLE   0.0000         P 3 -- P 4         +20.3% ( 62.6%)     98.9%
 TRAVEL (Ang.)       0.1567         P 2 -- P 4         +15.2% ( 54.2%)     12.7%
 REDUCED MASS        7.7434         P 1 -- P 3         +15.2% ( 54.2%)     12.7%
 EFFECTIVE MASS     30.9738         P 1 -- P 4         +14.5% ( 52.8%)      7.7%
 FORCE CONSTANT      0.5739         P 2 -- P 3         +14.5% ( 52.8%)      7.7%

 VIBRATION          5    1T2         ATOM PAIR     ENERGY CONTRIBUTION    RADIAL
 FREQUENCY           464.00         P 1 -- P 4         +22.8% ( 77.2%)     51.1%
 TRANSITION DIPOLE   1.2081         P 2 -- P 4         +22.1% ( 75.9%)     43.5%
 TRAVEL (Ang.)       0.1206         P 3 -- P 4         +22.0% ( 75.8%)     10.8%
 REDUCED MASS       10.0173         P 2 -- P 3         +14.8% ( 62.1%)     91.1%
 EFFECTIVE MASS     30.9738         P 1 -- P 3         +13.3% ( 58.8%)     85.6%
 FORCE CONSTANT      1.2707

 VIBRATION          6    1A1         ATOM PAIR     ENERGY CONTRIBUTION    RADIAL
 FREQUENCY           700.42         P 3 -- P 4         +16.7% ( 56.8%)    100.0%
 TRANSITION DIPOLE   0.0000         P 2 -- P 4         +16.7% ( 56.8%)    100.0%
 TRAVEL (Ang.)       0.1115         P 1 -- P 4         +16.7% ( 56.8%)    100.0%
 REDUCED MASS        7.7434         P 2 -- P 3         +16.7% ( 56.8%)    100.0%
 EFFECTIVE MASS     30.9738         P 1 -- P 3         +16.7% ( 56.8%)    100.0%
 FORCE CONSTANT      2.2382         P 1 -- P 2         +16.7% ( 56.8%)    100.0%

      SYMMETRY NUMBER FOR POINT-GROUP Td  = 12


          SYSTEM IS A GROUND STATE



 P4 (biely fosfor)


          MOLECULE IS NOT LINEAR

          THERE ARE  6 GENUINE VIBRATIONS IN THIS SYSTEM
          THIS THERMODYNAMICS CALCULATION IS LIMITED TO
          MOLECULES WHICH HAVE NO INTERNAL ROTATIONS




                    CALCULATED THERMODYNAMIC PROPERTIES
                                          *
   TEMP. (K)   PARTITION FUNCTION   H.O.F.    ENTHALPY  HEAT CAPACITY ENTROPY
                                   KCAL/MOL   CAL/MOLE    CAL/K/MOL  CAL/K/MOL


 298.00  VIB.     0.2160D+01                   991.0261     7.9465     4.8561
         ROT.     0.1383D+05                   888.2803     2.9808    21.9284
         INT.     0.2988D+05                  1879.3064    10.9274    26.7845
         TRA.     0.1333D+28                  1480.4672     4.9680    40.3545
         TOT.                       23.110    3359.7735    15.8954    67.1389

 200.00  VIB.     0.1320D+01                   331.0981     5.2398     2.2066
         ROT.     0.7606D+04                   596.1613     2.9808    20.7397
         INT.     0.1004D+05                   927.2594     8.2206    22.9463
         TRA.     0.7330D+27                   993.6021     4.9680    38.3733
         TOT.                       21.671    1920.8615    13.1886    61.3196

 210.00  VIB.     0.1377D+01                   385.3055     5.5982     2.4710
         ROT.     0.8183D+04                   625.9693     2.9808    20.8852
         INT.     0.1127D+05                  1011.2748     8.5790    23.3562
         TRA.     0.7887D+27                  1043.2822     4.9680    38.6157
         TOT.                       21.805    2054.5570    13.5471    61.9719

 220.00  VIB.     0.1441D+01                   442.9943     5.9361     2.7393
         ROT.     0.8774D+04                   655.7774     2.9808    21.0238
         INT.     0.1264D+05                  1098.7717     8.9169    23.7631
         TRA.     0.8457D+27                  1092.9623     4.9680    38.8468
         TOT.                       21.942    2191.7340    13.8849    62.6100

 230.00  VIB.     0.1510D+01                   503.9606     6.2538     3.0103
         ROT.     0.9379D+04                   685.5855     2.9808    21.1563
         INT.     0.1416D+05                  1189.5461     9.2347    24.1666
         TRA.     0.9040D+27                  1142.6424     4.9680    39.0677
         TOT.                       22.082    2332.1885    14.2027    63.2343

 240.00  VIB.     0.1586D+01                   568.0063     6.5521     3.2828
         ROT.     0.9998D+04                   715.3935     2.9808    21.2832
         INT.     0.1585D+05                  1283.3998     9.5329    24.5660
         TRA.     0.9636D+27                  1192.3226     4.9680    39.2791
         TOT.                       22.226    2475.7224    14.5009    63.8451

 250.00  VIB.     0.1668D+01                   634.9411     6.8318     3.5560
         ROT.     0.1063D+05                   745.2016     2.9808    21.4049
         INT.     0.1773D+05                  1380.1427     9.8126    24.9609
         TRA.     0.1024D+28                  1242.0027     4.9680    39.4819
         TOT.                       22.372    2622.1454    14.7806    64.4428

 260.00  VIB.     0.1756D+01                   704.5840     7.0939     3.8291
         ROT.     0.1127D+05                   775.0097     2.9808    21.5218
         INT.     0.1980D+05                  1479.5936    10.0747    25.3509
         TRA.     0.1087D+28                  1291.6828     4.9680    39.6768
         TOT.                       22.521    2771.2764    15.0427    65.0276

 270.00  VIB.     0.1852D+01                   776.7634     7.3393     4.1015
         ROT.     0.1193D+05                   804.8177     2.9808    21.6343
         INT.     0.2209D+05                  1581.5811    10.3201    25.7358
         TRA.     0.1150D+28                  1341.3629     4.9680    39.8643
         TOT.                       22.673    2922.9440    15.2881    65.6000

 280.00  VIB.     0.1955D+01                   851.3182     7.5691     4.3726
         ROT.     0.1260D+05                   834.6258     2.9808    21.7427
         INT.     0.2463D+05                  1685.9440    10.5499    26.1153
         TRA.     0.1214D+28                  1391.0430     4.9680    40.0449
         TOT.                       22.827    3076.9870    15.5179    66.1602

 290.00  VIB.     0.2066D+01                   928.0970     7.7843     4.6420
         ROT.     0.1328D+05                   864.4339     2.9808    21.8473
         INT.     0.2743D+05                  1792.5309    10.7651    26.4893
         TRA.     0.1280D+28                  1440.7231     4.9680    40.2193
         TOT.                       22.983    3233.2540    15.7331    66.7086

 300.00  VIB.     0.2185D+01                  1006.9585     7.9858     4.9093
         ROT.     0.1397D+05                   894.2419     2.9808    21.9483
         INT.     0.3052D+05                  1901.2004    10.9666    26.8577
         TRA.     0.1347D+28                  1490.4032     4.9680    40.3877
         TOT.                       23.142    3391.6036    15.9346    67.2454

 310.00  VIB.     0.2312D+01                  1087.7706     8.1746     5.1743
         ROT.     0.1468D+05                   924.0500     2.9808    22.0461
         INT.     0.3393D+05                  2011.8206    11.1554    27.2204
         TRA.     0.1415D+28                  1540.0833     4.9680    40.5506
         TOT.                       23.302    3551.9039    16.1234    67.7710

 320.00  VIB.     0.2448D+01                  1170.4105     8.3515     5.4367
         ROT.     0.1539D+05                   953.8580     2.9808    22.1407
         INT.     0.3768D+05                  2124.2686    11.3323    27.5774
         TRA.     0.1484D+28                  1589.7634     4.9680    40.7083
         TOT.                       23.464    3714.0320    16.3003    68.2857

 330.00  VIB.     0.2594D+01                  1254.7637     8.5174     5.6962
         ROT.     0.1612D+05                   983.6661     2.9808    22.2324
         INT.     0.4181D+05                  2238.4299    11.4982    27.9287
         TRA.     0.1554D+28                  1639.4435     4.9680    40.8612
         TOT.                       23.628    3877.8734    16.4662    68.7898

 340.00  VIB.     0.2749D+01                  1340.7240     8.6730     5.9528
         ROT.     0.1686D+05                  1013.4742     2.9808    22.3214
         INT.     0.4634D+05                  2354.1981    11.6538    28.2742
         TRA.     0.1625D+28                  1689.1236     4.9680    41.0095
         TOT.                       23.793    4043.3218    16.6218    69.2837

 350.00  VIB.     0.2915D+01                  1428.1923     8.8191     6.2064
         ROT.     0.1761D+05                  1043.2822     2.9808    22.4078
         INT.     0.5132D+05                  2471.4746    11.7999    28.6142
         TRA.     0.1697D+28                  1738.8037     4.9680    41.1535
         TOT.                       23.960    4210.2783    16.7679    69.7677

 360.00  VIB.     0.3091D+01                  1517.0770     8.9564     6.4567
         ROT.     0.1837D+05                  1073.0903     2.9808    22.4918
         INT.     0.5678D+05                  2590.1673    11.9372    28.9486
         TRA.     0.1770D+28                  1788.4838     4.9680    41.2935
         TOT.                       24.129    4378.6511    16.9052    70.2420

 370.00  VIB.     0.3279D+01                  1607.2926     9.0854     6.7039
         ROT.     0.1914D+05                  1102.8984     2.9808    22.5735
         INT.     0.6275D+05                  2710.1910    12.0662    29.2774
         TRA.     0.1845D+28                  1838.1639     4.9680    41.4296
         TOT.                       24.298    4548.3549    17.0342    70.7070

 380.00  VIB.     0.3479D+01                  1698.7600     9.2068     6.9478
         ROT.     0.1992D+05                  1132.7064     2.9808    22.6530
         INT.     0.6929D+05                  2831.4664    12.1876    29.6008
         TRA.     0.1920D+28                  1887.8440     4.9680    41.5621
         TOT.                       24.469    4719.3105    17.1556    71.1629

 390.00  VIB.     0.3691D+01                  1791.4054     9.3211     7.1885
         ROT.     0.2071D+05                  1162.5145     2.9808    22.7304
         INT.     0.7644D+05                  2953.9198    12.3019    29.9189
         TRA.     0.1996D+28                  1937.5242     4.9680    41.6911
         TOT.                       24.642    4891.4440    17.2699    71.6100

 400.00  VIB.     0.3917D+01                  1885.1603     9.4288     7.4258
         ROT.     0.2151D+05                  1192.3226     2.9808    22.8059
         INT.     0.8425D+05                  3077.4828    12.4096    30.2317
         TRA.     0.2073D+28                  1987.2043     4.9680    41.8169
         TOT.                       24.815    5064.6871    17.3776    72.0486

   *: NOTE: HEATS OF FORMATION ARE RELATIVE TO THE
            ELEMENTS IN THEIR STANDARD STATE AT 298K
              (=  Standard Enthalpy of Formation).

            Hvib:  Zero-point energy is not included.
                   frequencies of less than zero cm-1 are not included.
            Hrot = (3/2)RT
            Htra = (3/2)RT + pV = (5/2)RT

            Heat capacity is Cp, not Cv

          For more information, see: HTTP://OpenMOPAC.net/Manual/thermochemistry.html


           FORCE CONSTANT IN CARTESIAN COORDINATES (Millidynes/A)

    ATOM   CHEMICAL       X               Y               Z
   NUMBER   SYMBOL  FORCE CONSTANT  FORCE CONSTANT  FORCE CONSTANT

      1       P        3.157255        1.763241        1.414743
      2       P        3.157223        1.763263        1.414752
      3       P        1.066253        3.854227        1.414758
      4       P        1.066253        1.066253        4.202732

 **********************
 *                    *
 * JOB ENDED NORMALLY *
 *                    *
 **********************



 TOTAL JOB TIME:             2.40 SECONDS

 == MOPAC DONE ==
