 *******************************************************************************
 **                                                                           **
 **                              MOPAC v22.1.0                                **
 **                                                                           **
 *******************************************************************************
 **          Digital Object Identifier (DOI): 10.5281/zenodo.6511958          **
 **    Visit the DOI location for information on how to cite this program.    **
 *******************************************************************************

                              PM7 CALCULATION RESULTS

 *******************************************************************************
 *  CALCULATION DONE:                                Sun Jan 21 21:30:22 2024  *
 *  PM7        - The PM7 Hamiltonian to be used
 *  DOUBLET    - SPIN STATE DEFINED AS A DOUBLET
 *  RHF        - RESTRICTED HARTREE-FOCK CALCULATION
 *
 *
 *
 *                 CHARGE ON SYSTEM = 0
 *
 *
 *
 *  OPEN(M,N)  - THERE ARE 1 ELECTRONS IN 1 LEVELS
 *  PRECISE    - TIGHTER CRITERIA TO BE USED
 *  T=         - A TIME OF 172800.0 SECONDS REQUESTED
 *  DUMP=N     - RESTART FILE WRITTEN EVERY 7200.0 SECONDS REQUESTED
 *  LARGE      - EXPANDED OUTPUT TO BE PRINTED
 *******************************************************************************
 PRECISE  LARGE CHARGE=0 DOUBLET  PM7 OPEN(1,1) RHF
 CH dublet PM7

   ATOM   CHEMICAL          X               Y               Z
  NUMBER   SYMBOL      (ANGSTROMS)     (ANGSTROMS)     (ANGSTROMS)
 
     1       C         -6.33795000  *   1.45569000  *   0.00000000  *
     2       H         -6.87653000  *   0.76089000  *  -0.63705000  *
 


          CARTESIAN COORDINATES 

    NO.       ATOM           X           Y           Z

     1         C         -6.3380      1.4557      0.0000
     2         H         -6.8765      0.7609     -0.6371

 General Reference for PM7:
 "Optimization of Parameters for Semiempirical Methods VI: More Modifications to the 
 NDDO Approximations and Re-optimization of Parameters", J. J. P. Stewart, J. Mol. Mod., 1:32, 19 (2013)
 https://link.springer.com/article/10.1007/s00894-012-1667-x

           Empirical Formula: C H  =     2 atoms



      MOLECULAR POINT GROUP   :   C*v 


 DOUBLET STATE CALCULATION

      THERE ARE    2 DOUBLY FILLED LEVELS


      RHF CALCULATION, NO. OF DOUBLY OCCUPIED LEVELS = 2


                       NO. OF SINGLY OCCUPIED LEVELS =    1

          Geometry optimization using EF

          DIAGONAL MATRIX USED AS START HESSIAN

 CYCLE:     1 TIME:   0.000 TIME LEFT:  2.00D  GRAD.:     8.493 HEAT:  139.1913
 CYCLE:     2 TIME:   0.008 TIME LEFT:  2.00D  GRAD.:     5.323 HEAT:  139.1703
 CYCLE:     3 TIME:   0.008 TIME LEFT:  2.00D  GRAD.:     0.063 HEAT:  139.1573
 CYCLE:     4 TIME:   0.008 TIME LEFT:  2.00D  GRAD.:     0.017 HEAT:  139.1573

     GRADIENT =  0.01706 IS LESS THAN CUTOFF =  0.05000



 -------------------------------------------------------------------------------
 PRECISE  LARGE CHARGE=0 DOUBLET  PM7 OPEN(1,1) RHF
 CH dublet PM7



     GEOMETRY OPTIMISED USING EIGENVECTOR FOLLOWING (EF).     
     SCF FIELD WAS ACHIEVED                                   


                              PM7 CALCULATION
                                                       MOPAC v22.1.0 Windows
                                                       Sun Jan 21 21:30:22 2024




          FINAL HEAT OF FORMATION =        139.15729 KCAL/MOL =     582.23408 KJ/MOL


          COSMO AREA              =         51.22 SQUARE ANGSTROMS
          COSMO VOLUME            =         34.05 CUBIC ANGSTROMS

          GRADIENT NORM           =          0.01706          =       0.01206 PER ATOM
          IONIZATION POTENTIAL    =          8.466773 EV          STATE:   1 DOUBLET ????
          HOMO (SOMO) LUMO (EV)   =      -10.628 ( -3.241)  0.652
          NO. OF FILLED LEVELS    =          2
          AND NO. OF OPEN LEVELS  =          1
          MOLECULAR WEIGHT        =         13.0189         POINT GROUP:  C*v 

          MOLECULAR DIMENSIONS (Angstroms)

            Atom       Atom       Distance
            H     2    C     1     1.07436
            H     2    C     1     0.00000
            C     1    H     2     0.00000


          SCF CALCULATIONS        =          6
 
          WALL-CLOCK TIME         =      0.070 SECONDS
          COMPUTATION TIME        =      0.047 SECONDS




   ATOM   CHEMICAL          X               Y               Z
  NUMBER   SYMBOL      (ANGSTROMS)     (ANGSTROMS)     (ANGSTROMS)
 
     1       C         -6.33939178  *   1.45261409  *  -0.00505932  *
     2       H         -6.87508822  *   0.76396591  *  -0.63199068  *

                             CARTESIAN COORDINATES

   1    C       -6.339391775     1.452614091    -0.005059323
   2    H       -6.875088225     0.763965909    -0.631990676


           Empirical Formula: C H  =     2 atoms



      MOLECULAR POINT GROUP   :   C*v 


                  EIGENVALUES  
 -20.00496 -10.62772  -3.24066   0.65204   6.26667


              NET ATOMIC CHARGES AND DIPOLE CONTRIBUTIONS

  ATOM NO.   TYPE          CHARGE      No. of ELECS.   s-Pop       p-Pop       
    1          C           0.060276        3.9397     1.79503     2.14470
    2          H          -0.060276        1.0603     1.06028
 DIPOLE           X         Y         Z       TOTAL
 POINT-CHG.     0.155     0.199     0.182     0.311
 HYBRID        -0.831    -1.068    -0.972     1.666
 SUM           -0.676    -0.868    -0.790     1.355


          ATOMIC ORBITAL ELECTRON POPULATIONS

     Atom    s        px        py        pz   
    1  C   1.79503   1.00753   0.71303   0.42413
    2  H   1.06028

 **********************
 *                    *
 * JOB ENDED NORMALLY *
 *                    *
 **********************



 TOTAL JOB TIME:             0.07 SECONDS

 == MOPAC DONE ==
