 *******************************************************************************
 **                                                                           **
 **                              MOPAC v22.1.0                                **
 **                                                                           **
 *******************************************************************************
 **          Digital Object Identifier (DOI): 10.5281/zenodo.6511958          **
 **    Visit the DOI location for information on how to cite this program.    **
 *******************************************************************************

                              PM7 CALCULATION RESULTS

 *******************************************************************************
 *  CALCULATION DONE:                                Sat Jan 13 22:02:32 2024  *
 *  PM7        - The PM7 Hamiltonian to be used
 *  SINGLET    - SPIN STATE DEFINED AS A SINGLET
 *  NOOPT      - DO NOT OPTIMIZE ANY COORDINATES
 *
 *
 *
 *                 CHARGE ON SYSTEM = 0
 *
 *
 *
 *  PRECISE    - TIGHTER CRITERIA TO BE USED
 *  T=         - A TIME OF 172800.0 SECONDS REQUESTED
 *  DUMP=N     - RESTART FILE WRITTEN EVERY 7200.0 SECONDS REQUESTED
 *  LARGE      - EXPANDED OUTPUT TO BE PRINTED
 *  GRAPH      - GENERATE FILE FOR GRAPHICS
 *  ALLVEC     - PRINT ALL EIGENVECTORS
 *******************************************************************************
  LARGE CHARGE=0 SINGLET PRECISE NOOPT PM7 GRAPHF ALLVEC
 Atom Zn

   ATOM   CHEMICAL          X               Y               Z
  NUMBER   SYMBOL      (ANGSTROMS)     (ANGSTROMS)     (ANGSTROMS)
 
     1      Zn          0.00000000      0.00000000      0.00000000   
 


          CARTESIAN COORDINATES 

    NO.       ATOM           X           Y           Z

     1        Zn          0.0000      0.0000      0.0000

 General Reference for PM7:
 "Optimization of Parameters for Semiempirical Methods VI: More Modifications to the 
 NDDO Approximations and Re-optimization of Parameters", J. J. P. Stewart, J. Mol. Mod., 1:32, 19 (2013)
 https://link.springer.com/article/10.1007/s00894-012-1667-x

           Empirical Formula: Zn  =     1 atoms



      MOLECULAR POINT GROUP   :   R3  


 SINGLET STATE CALCULATION


      RHF CALCULATION, NO. OF DOUBLY OCCUPIED LEVELS = 1


 -------------------------------------------------------------------------------
 LARGE CHARGE=0 SINGLET PRECISE NOOPT PM7 GRAPHF ALLVEC
 Atom Zn



     NO PARAMETERS MARKED FOR OPTIMIZATION, SO 1SCF WAS USED  
     SCF FIELD WAS ACHIEVED                                   


                              PM7 CALCULATION
                                                       MOPAC v22.1.0 Windows
                                                       Sat Jan 13 22:02:32 2024




          FINAL HEAT OF FORMATION =         31.17000 KCAL/MOL =     130.41528 KJ/MOL


          COSMO AREA              =         33.39 SQUARE ANGSTROMS
          COSMO VOLUME            =         18.14 CUBIC ANGSTROMS

          IONIZATION POTENTIAL    =         10.278560 EV
          HOMO LUMO ENERGIES (EV) =        -10.279  4.659
          NO. OF FILLED LEVELS    =          1
          MOLECULAR WEIGHT        =         65.3800         POINT GROUP:  R3  


          SCF CALCULATIONS        =          1
 
          WALL-CLOCK TIME         =      0.031 SECONDS
          COMPUTATION TIME        =      0.031 SECONDS




   ATOM   CHEMICAL          X               Y               Z
  NUMBER   SYMBOL      (ANGSTROMS)     (ANGSTROMS)     (ANGSTROMS)
 
     1      Zn          0.00000000      0.00000000      0.00000000   

                             CARTESIAN COORDINATES

   1   Zn        0.000000000     0.000000000     0.000000000


           Empirical Formula: Zn  =     1 atoms



      MOLECULAR POINT GROUP   :   R3  


                EIGENVECTORS  


   Root No.       1         2         3         4

                 1 s(g)    1 p(u)    1 p(u)    1 p(u)

               -10.279     4.659     4.659     4.659
  
  S  Zn    1    1.0000    0.0000    0.0000    0.0000
  Px Zn    1   -0.0000    1.0000    0.0000    0.0000
  Py Zn    1   -0.0000   -0.0000    1.0000    0.0000
  Pz Zn    1    0.0000    0.0000    0.0000    1.0000


              NET ATOMIC CHARGES AND DIPOLE CONTRIBUTIONS

  ATOM NO.   TYPE          CHARGE      No. of ELECS.   s-Pop       p-Pop       
    1         Zn           0.000000        2.0000     2.00000     0.00000
 DIPOLE           X         Y         Z       TOTAL
 POINT-CHG.     0.000     0.000     0.000     0.000
 HYBRID         0.000     0.000     0.000     0.000
 SUM            0.000     0.000     0.000     0.000


          ATOMIC ORBITAL ELECTRON POPULATIONS

     Atom    s        px        py        pz   
    1 Zn   2.00000   0.00000   0.00000   0.00000

           DATA FOR GRAPH WRITTEN TO DISK

 **********************
 *                    *
 * JOB ENDED NORMALLY *
 *                    *
 **********************



 TOTAL JOB TIME:             0.05 SECONDS

 == MOPAC DONE ==
