 *******************************************************************************
 **                                                                           **
 **                              MOPAC v22.1.1                                **
 **                                                                           **
 *******************************************************************************
 **          Digital Object Identifier (DOI): 10.5281/zenodo.6511958          **
 **    Visit the DOI location for information on how to cite this program.    **
 *******************************************************************************

                              PM7 CALCULATION RESULTS

 *******************************************************************************
 *  CALCULATION DONE:                                Mon Feb 19 21:14:26 2024  *
 *  PM7        - The PM7 Hamiltonian to be used
 *  GEO-OK     - OVERRIDE INTERATOMIC DISTANCE AND OTHER SAFETY CHECKS
 *  GEO_DAT    - DATA SET GEOMETRY IS IN FILE "H2_Br2-singlepoint.arc"
 *  GEO_REF    - REFERENCE GEOMETRY IS IN FILE "HBr_2molecules.arc"
 *               (NO BIAS TOWARDS THE REFERENCE GEOMETRY WILL BE APPLIED)
 *  PRECISE    - TIGHTER CRITERIA TO BE USED
 *  SADDLE     - TRANSITION STATE TO BE OPTIMIZED
 *  T=         - A TIME OF 172800.0 SECONDS REQUESTED
 *  DUMP=N     - RESTART FILE WRITTEN EVERY 7200.0 SECONDS REQUESTED
 *******************************************************************************
GEO_DAT="H2_Br2-singlepoint.arc" GEO_REF="HBr_2molecules.arc" SADDLE  GEO-OK PM7 PRECISE
 Tranzitny stav H2 + Br2

   ATOM   CHEMICAL          X               Y               Z
  NUMBER   SYMBOL      (ANGSTROMS)     (ANGSTROMS)     (ANGSTROMS)
 
     1       H         -5.56273000  *   2.12227000  *   0.00000000  *
     2       H         -5.52131000  *   1.00918000  *   0.00000000  *
     3      Br         -3.41609000  *   2.92333000  *   0.00000000  *
     4      Br         -3.31677000  *   0.83771000  *   0.00000000  *
 

           The two systems have different chain letters, so all chain letters changed to "X"

                        After docking

                     Atoms that move a lot

                     Atom Label             GEO_REF Coordinates       Movement    Integral

            (          1          X    )  -5.206   2.845   0.000        0.63         0.63
            (          2          X    )  -5.086   0.593   0.000        0.58         1.21
            (          3          X    )  -3.416   2.923   0.000        0.23         1.45
            (          4          X    )  -3.317   0.838   0.000        0.18         1.63

     Residues that move a lot and their (Movement in Angstroms, per atom)


   Difference between GEO_DAT and GEO_REF: 1.629 = total,  0.4074 = Average,  0.4545 = RMS, in Angstroms

 General Reference for PM7:
 "Optimization of Parameters for Semiempirical Methods VI: More Modifications to the 
 NDDO Approximations and Re-optimization of Parameters", J. J. P. Stewart, J. Mol. Mod., 1:32, 19 (2013)
 https://link.springer.com/article/10.1007/s00894-012-1667-x

           Empirical Formula: H2 Br2  =     4 atoms



      MOLECULAR POINT GROUP   :   Cs  


      RHF CALCULATION, NO. OF DOUBLY OCCUPIED LEVELS = 8



  CARTESIAN GEOMETRY OF FIRST SYSTEM


   1    H         -5.20641       2.84481       0.00000
   2    H         -5.08580       0.59347       0.00000
   3   Br         -3.41609       2.92333       0.00000
   4   Br         -3.31677       0.83771       0.00000


  CARTESIAN GEOMETRY OF SECOND SYSTEM


   1    H         -5.35418       2.22726       0.00000
   2    H         -5.34130       1.11347       0.00000
   3   Br         -3.18771       2.97303      -0.00000
   4   Br         -3.14188       0.88555      -0.00000


   "DISTANCE":     0.909061


  REACTION COORDINATE VECTOR


   1    H          0.14777       0.61755       0.00000
   2    H          0.25550      -0.52000      -0.00000
   3   Br         -0.22838      -0.04970       0.00000
   4   Br         -0.17489      -0.04784       0.00000
 *+*+*+*+*+*+*+*+*+*+*+*+*+*+*+*+*+*+*+*+*+*+*+*+*+*+*+*+*+*+*+*+*+*+*+*+*+*+*+*+
            BAR SHORTENED BY       0.000 PERCENT
 GRADIENT CRITERION IN FLEPO =     0.200


          FOR POINT    1 SECOND STRUCTURE
 DISTANCE A - B      0.909061
 HEAT               23.425227
 GRADIENT NORM     119.728653
 DIRECTION COSINE   -0.000000
 GEO-OK PM7 PRECISE
 Tranzitny stav H2 + Br2

  H(          1          X    )   0.00000000 +0    0.0000000 +0    0.0000000 +0
  H(          2          X    )   1.51265437 +1    0.0000000 +0    0.0000000 +0     1     0     0
 Br(          3          X    )   1.62135851 +1  117.8312656 +1    0.0000000 +0     1     2     0
 Br(          4          X    )   1.59678559 +1  108.1169261 +1   -0.0120131 +1     2     1     3
 
 TIME=     0.32
  REACTANTS AND PRODUCTS SWAPPED AROUND
 *+*+*+*+*+*+*+*+*+*+*+*+*+*+*+*+*+*+*+*+*+*+*+*+*+*+*+*+*+*+*+*+*+*+*+*+*+*+*+*+
            BAR SHORTENED BY       1.000 PERCENT
 GRADIENT CRITERION IN FLEPO =     2.000


          FOR POINT    2 FIRST  STRUCTURE
 DISTANCE A - B      0.899970
 HEAT               -6.988460
 GRADIENT NORM      66.118135
 DIRECTION COSINE    0.925379
 GEO-OK PM7 PRECISE
 Tranzitny stav H2 + Br2

  H(          1          X    )   0.00000000 +0    0.0000000 +0    0.0000000 +0
  H(          2          X    )   0.78166941 +1    0.0000000 +0    0.0000000 +0     1     0     0
 Br(          3          X    )   2.31900100 +1  114.3041920 +1    0.0000000 +0     1     2     0
 Br(          4          X    )   2.30981220 +1  106.5848464 +1   -0.2233871 +1     2     1     3
 
 *+*+*+*+*+*+*+*+*+*+*+*+*+*+*+*+*+*+*+*+*+*+*+*+*+*+*+*+*+*+*+*+*+*+*+*+*+*+*+*+
            BAR SHORTENED BY       1.000 PERCENT
 GRADIENT CRITERION IN FLEPO =     2.000


          FOR POINT    3 FIRST  STRUCTURE
 DISTANCE A - B      0.890971
 HEAT               -6.391688
 GRADIENT NORM      67.644014
 DIRECTION COSINE    0.999909
 GEO-OK PM7 PRECISE
 Tranzitny stav H2 + Br2

  H(          1          X    )   0.00000000 +0    0.0000000 +0    0.0000000 +0
  H(          2          X    )   0.78184107 +1    0.0000000 +0    0.0000000 +0     1     0     0
 Br(          3          X    )   2.30953886 +1  114.4570832 +1    0.0000000 +0     1     2     0
 Br(          4          X    )   2.30039462 +1  106.6911636 +1   -0.3543707 +1     2     1     3
 
 *+*+*+*+*+*+*+*+*+*+*+*+*+*+*+*+*+*+*+*+*+*+*+*+*+*+*+*+*+*+*+*+*+*+*+*+*+*+*+*+
            BAR SHORTENED BY       1.000 PERCENT
 GRADIENT CRITERION IN FLEPO =     2.000


          FOR POINT    4 FIRST  STRUCTURE
 DISTANCE A - B      0.882061
 HEAT               -5.780995
 GRADIENT NORM      69.912321
 DIRECTION COSINE    0.999783
 GEO-OK PM7 PRECISE
 Tranzitny stav H2 + Br2

  H(          1          X    )   0.00000000 +0    0.0000000 +0    0.0000000 +0
  H(          2          X    )   0.78263707 +1    0.0000000 +0    0.0000000 +0     1     0     0
 Br(          3          X    )   2.30020854 +1  114.5950813 +1    0.0000000 +0     1     2     0
 Br(          4          X    )   2.29301561 +1  106.8350681 +1   -0.0785685 +1     2     1     3
 
 TIME=     0.32
  REACTANTS AND PRODUCTS SWAPPED AROUND
 *+*+*+*+*+*+*+*+*+*+*+*+*+*+*+*+*+*+*+*+*+*+*+*+*+*+*+*+*+*+*+*+*+*+*+*+*+*+*+*+
            BAR SHORTENED BY       0.000 PERCENT
 GRADIENT CRITERION IN FLEPO =     2.000


          FOR POINT    5 SECOND STRUCTURE
 DISTANCE A - B      0.882061
 HEAT               18.876371
 GRADIENT NORM      93.805704
 DIRECTION COSINE    0.966779
 GEO-OK PM7 PRECISE
 Tranzitny stav H2 + Br2

  H(          1          X    )   0.00000000 +0    0.0000000 +0    0.0000000 +0
  H(          2          X    )   1.24080282 +1    0.0000000 +0    0.0000000 +0     1     0     0
 Br(          3          X    )   1.64168912 +1  122.7913859 +1    0.0000000 +0     1     2     0
 Br(          4          X    )   1.62818345 +1  118.3860282 +1   -0.3104266 +1     2     1     3
 
 TIME=     0.09
  REACTANTS AND PRODUCTS SWAPPED AROUND
 *+*+*+*+*+*+*+*+*+*+*+*+*+*+*+*+*+*+*+*+*+*+*+*+*+*+*+*+*+*+*+*+*+*+*+*+*+*+*+*+
            BAR SHORTENED BY       1.000 PERCENT
 GRADIENT CRITERION IN FLEPO =     2.000


          FOR POINT    6 FIRST  STRUCTURE
 DISTANCE A - B      0.873240
 HEAT               -5.301994
 GRADIENT NORM      64.515556
 DIRECTION COSINE    0.996443
 GEO-OK PM7 PRECISE
 Tranzitny stav H2 + Br2

  H(          1          X    )   0.00000000 +0    0.0000000 +0    0.0000000 +0
  H(          2          X    )   0.77309868 +1    0.0000000 +0    0.0000000 +0     1     0     0
 Br(          3          X    )   2.29449217 +1  114.5260244 +1    0.0000000 +0     1     2     0
 Br(          4          X    )   2.28706939 +1  107.5385072 +1   -0.5020001 +1     2     1     3
 
 *+*+*+*+*+*+*+*+*+*+*+*+*+*+*+*+*+*+*+*+*+*+*+*+*+*+*+*+*+*+*+*+*+*+*+*+*+*+*+*+
            BAR SHORTENED BY       1.000 PERCENT
 GRADIENT CRITERION IN FLEPO =     2.000


          FOR POINT    7 FIRST  STRUCTURE
 DISTANCE A - B      0.864508
 HEAT               -4.754748
 GRADIENT NORM      67.154886
 DIRECTION COSINE    0.998881
 GEO-OK PM7 PRECISE
 Tranzitny stav H2 + Br2

  H(          1          X    )   0.00000000 +0    0.0000000 +0    0.0000000 +0
  H(          2          X    )   0.77484919 +1    0.0000000 +0    0.0000000 +0     1     0     0
 Br(          3          X    )   2.27996984 +1  113.9410349 +1    0.0000000 +0     1     2     0
 Br(          4          X    )   2.28717496 +1  108.3502366 +1   -0.4487531 +1     2     1     3
 
 *+*+*+*+*+*+*+*+*+*+*+*+*+*+*+*+*+*+*+*+*+*+*+*+*+*+*+*+*+*+*+*+*+*+*+*+*+*+*+*+
            BAR SHORTENED BY       1.000 PERCENT
 GRADIENT CRITERION IN FLEPO =     2.000


          FOR POINT    8 FIRST  STRUCTURE
 DISTANCE A - B      0.855863
 HEAT               -4.173113
 GRADIENT NORM      68.247962
 DIRECTION COSINE    0.999857
 GEO-OK PM7 PRECISE
 Tranzitny stav H2 + Br2

  H(          1          X    )   0.00000000 +0    0.0000000 +0    0.0000000 +0
  H(          2          X    )   0.77454566 +1    0.0000000 +0    0.0000000 +0     1     0     0
 Br(          3          X    )   2.27062221 +1  113.9725337 +1    0.0000000 +0     1     2     0
 Br(          4          X    )   2.27907210 +1  108.5492282 +1   -0.7732815 +1     2     1     3
 
 TIME=     0.18
  REACTANTS AND PRODUCTS SWAPPED AROUND
 *+*+*+*+*+*+*+*+*+*+*+*+*+*+*+*+*+*+*+*+*+*+*+*+*+*+*+*+*+*+*+*+*+*+*+*+*+*+*+*+
            BAR SHORTENED BY       0.000 PERCENT
 GRADIENT CRITERION IN FLEPO =     2.000


          FOR POINT    9 SECOND STRUCTURE
 DISTANCE A - B      0.855863
 HEAT               18.812605
 GRADIENT NORM      92.693870
 DIRECTION COSINE    0.998808
 GEO-OK PM7 PRECISE
 Tranzitny stav H2 + Br2

  H(          1          X    )   0.00000000 +0    0.0000000 +0    0.0000000 +0
  H(          2          X    )   1.22493375 +1    0.0000000 +0    0.0000000 +0     1     0     0
 Br(          3          X    )   1.63798979 +1  122.4587552 +1    0.0000000 +0     1     2     0
 Br(          4          X    )   1.63695324 +1  119.4809143 +1   -0.6196677 +1     2     1     3
 
 TIME=     0.05
  REACTANTS AND PRODUCTS SWAPPED AROUND
 *+*+*+*+*+*+*+*+*+*+*+*+*+*+*+*+*+*+*+*+*+*+*+*+*+*+*+*+*+*+*+*+*+*+*+*+*+*+*+*+
            BAR SHORTENED BY       1.000 PERCENT
 GRADIENT CRITERION IN FLEPO =     2.000


          FOR POINT   10 FIRST  STRUCTURE
 DISTANCE A - B      0.847304
 HEAT               -3.587628
 GRADIENT NORM      69.331999
 DIRECTION COSINE    0.999225
 GEO-OK PM7 PRECISE
 Tranzitny stav H2 + Br2

  H(          1          X    )   0.00000000 +0    0.0000000 +0    0.0000000 +0
  H(          2          X    )   0.77435229 +1    0.0000000 +0    0.0000000 +0     1     0     0
 Br(          3          X    )   2.26089300 +1  113.9230796 +1    0.0000000 +0     1     2     0
 Br(          4          X    )   2.27080901 +1  108.8064757 +1   -1.0772486 +1     2     1     3
 
 *+*+*+*+*+*+*+*+*+*+*+*+*+*+*+*+*+*+*+*+*+*+*+*+*+*+*+*+*+*+*+*+*+*+*+*+*+*+*+*+
            BAR SHORTENED BY       1.000 PERCENT
 GRADIENT CRITERION IN FLEPO =     2.000


          FOR POINT   11 FIRST  STRUCTURE
 DISTANCE A - B      0.838831
 HEAT               -2.997152
 GRADIENT NORM      71.271305
 DIRECTION COSINE    0.999859
 GEO-OK PM7 PRECISE
 Tranzitny stav H2 + Br2

  H(          1          X    )   0.00000000 +0    0.0000000 +0    0.0000000 +0
  H(          2          X    )   0.77487935 +1    0.0000000 +0    0.0000000 +0     1     0     0
 Br(          3          X    )   2.25614789 +1  113.7255147 +1    0.0000000 +0     1     2     0
 Br(          4          X    )   2.26214998 +1  109.2682624 +1   -0.7369847 +1     2     1     3
 
 *+*+*+*+*+*+*+*+*+*+*+*+*+*+*+*+*+*+*+*+*+*+*+*+*+*+*+*+*+*+*+*+*+*+*+*+*+*+*+*+
            BAR SHORTENED BY       1.000 PERCENT
 GRADIENT CRITERION IN FLEPO =     2.000


          FOR POINT   12 FIRST  STRUCTURE
 DISTANCE A - B      0.830443
 HEAT               -2.392115
 GRADIENT NORM      72.589727
 DIRECTION COSINE    0.999926
 GEO-OK PM7 PRECISE
 Tranzitny stav H2 + Br2

  H(          1          X    )   0.00000000 +0    0.0000000 +0    0.0000000 +0
  H(          2          X    )   0.77503422 +1    0.0000000 +0    0.0000000 +0     1     0     0
 Br(          3          X    )   2.24672165 +1  113.6741289 +1    0.0000000 +0     1     2     0
 Br(          4          X    )   2.25398736 +1  109.5200940 +1   -0.9779197 +1     2     1     3
 
 TIME=     0.17
  REACTANTS AND PRODUCTS SWAPPED AROUND
 *+*+*+*+*+*+*+*+*+*+*+*+*+*+*+*+*+*+*+*+*+*+*+*+*+*+*+*+*+*+*+*+*+*+*+*+*+*+*+*+
            BAR SHORTENED BY       0.000 PERCENT
 GRADIENT CRITERION IN FLEPO =     2.000


          FOR POINT   13 SECOND STRUCTURE
 DISTANCE A - B      0.830443
 HEAT               18.795021
 GRADIENT NORM      91.492953
 DIRECTION COSINE    0.999280
 GEO-OK PM7 PRECISE
 Tranzitny stav H2 + Br2

  H(          1          X    )   0.00000000 +0    0.0000000 +0    0.0000000 +0
  H(          2          X    )   1.21530280 +1    0.0000000 +0    0.0000000 +0     1     0     0
 Br(          3          X    )   1.63523574 +1  122.5248790 +1    0.0000000 +0     1     2     0
 Br(          4          X    )   1.63529764 +1  119.7515614 +1   -0.9767118 +1     2     1     3
 
 TIME=     0.05
  REACTANTS AND PRODUCTS SWAPPED AROUND
 *+*+*+*+*+*+*+*+*+*+*+*+*+*+*+*+*+*+*+*+*+*+*+*+*+*+*+*+*+*+*+*+*+*+*+*+*+*+*+*+
            BAR SHORTENED BY       1.000 PERCENT
 GRADIENT CRITERION IN FLEPO =     2.000


          FOR POINT   14 FIRST  STRUCTURE
 DISTANCE A - B      0.822138
 HEAT               -1.783722
 GRADIENT NORM      74.473266
 DIRECTION COSINE    0.999470
 GEO-OK PM7 PRECISE
 Tranzitny stav H2 + Br2

  H(          1          X    )   0.00000000 +0    0.0000000 +0    0.0000000 +0
  H(          2          X    )   0.77557683 +1    0.0000000 +0    0.0000000 +0     1     0     0
 Br(          3          X    )   2.24138464 +1  113.5419798 +1    0.0000000 +0     1     2     0
 Br(          4          X    )   2.24579700 +1  109.9042362 +1   -0.9587619 +1     2     1     3
 
 *+*+*+*+*+*+*+*+*+*+*+*+*+*+*+*+*+*+*+*+*+*+*+*+*+*+*+*+*+*+*+*+*+*+*+*+*+*+*+*+
            BAR SHORTENED BY       1.000 PERCENT
 GRADIENT CRITERION IN FLEPO =     2.000


          FOR POINT   15 FIRST  STRUCTURE
 DISTANCE A - B      0.813917
 HEAT               -1.164573
 GRADIENT NORM      76.311211
 DIRECTION COSINE    0.999860
 GEO-OK PM7 PRECISE
 Tranzitny stav H2 + Br2

  H(          1          X    )   0.00000000 +0    0.0000000 +0    0.0000000 +0
  H(          2          X    )   0.77655162 +1    0.0000000 +0    0.0000000 +0     1     0     0
 Br(          3          X    )   2.23270521 +1  113.4356234 +1    0.0000000 +0     1     2     0
 Br(          4          X    )   2.23760210 +1  110.1909785 +1   -0.9322293 +1     2     1     3
 
 *+*+*+*+*+*+*+*+*+*+*+*+*+*+*+*+*+*+*+*+*+*+*+*+*+*+*+*+*+*+*+*+*+*+*+*+*+*+*+*+
            BAR SHORTENED BY       1.000 PERCENT
 GRADIENT CRITERION IN FLEPO =     2.000


          FOR POINT   16 FIRST  STRUCTURE
 DISTANCE A - B      0.805778
 HEAT               -0.538420
 GRADIENT NORM      78.011429
 DIRECTION COSINE    0.999892
 GEO-OK PM7 PRECISE
 Tranzitny stav H2 + Br2

  H(          1          X    )   0.00000000 +0    0.0000000 +0    0.0000000 +0
  H(          2          X    )   0.77671900 +1    0.0000000 +0    0.0000000 +0     1     0     0
 Br(          3          X    )   2.22741315 +1  113.4383569 +1    0.0000000 +0     1     2     0
 Br(          4          X    )   2.23040663 +1  110.4664148 +1   -0.8969562 +1     2     1     3
 
 TIME=     0.15
  REACTANTS AND PRODUCTS SWAPPED AROUND
 *+*+*+*+*+*+*+*+*+*+*+*+*+*+*+*+*+*+*+*+*+*+*+*+*+*+*+*+*+*+*+*+*+*+*+*+*+*+*+*+
            BAR SHORTENED BY       0.000 PERCENT
 GRADIENT CRITERION IN FLEPO =     2.000


          FOR POINT   17 SECOND STRUCTURE
 DISTANCE A - B      0.805778
 HEAT               18.782348
 GRADIENT NORM      90.924525
 DIRECTION COSINE    0.999531
 GEO-OK PM7 PRECISE
 Tranzitny stav H2 + Br2

  H(          1          X    )   0.00000000 +0    0.0000000 +0    0.0000000 +0
  H(          2          X    )   1.20731527 +1    0.0000000 +0    0.0000000 +0     1     0     0
 Br(          3          X    )   1.63812923 +1  122.3804714 +1    0.0000000 +0     1     2     0
 Br(          4          X    )   1.63461363 +1  120.2689713 +1   -0.8284485 +1     2     1     3
 
 TIME=     0.07
  REACTANTS AND PRODUCTS SWAPPED AROUND
 *+*+*+*+*+*+*+*+*+*+*+*+*+*+*+*+*+*+*+*+*+*+*+*+*+*+*+*+*+*+*+*+*+*+*+*+*+*+*+*+
            BAR SHORTENED BY       1.000 PERCENT
 GRADIENT CRITERION IN FLEPO =     2.000


          FOR POINT   18 FIRST  STRUCTURE
 DISTANCE A - B      0.797720
 HEAT                0.093376
 GRADIENT NORM      79.539417
 DIRECTION COSINE    0.999613
 GEO-OK PM7 PRECISE
 Tranzitny stav H2 + Br2

  H(          1          X    )   0.00000000 +0    0.0000000 +0    0.0000000 +0
  H(          2          X    )   0.77692258 +1    0.0000000 +0    0.0000000 +0     1     0     0
 Br(          3          X    )   2.22025023 +1  113.3923055 +1    0.0000000 +0     1     2     0
 Br(          4          X    )   2.22310046 +1  110.7546160 +1   -0.6119139 +1     2     1     3
 
 *+*+*+*+*+*+*+*+*+*+*+*+*+*+*+*+*+*+*+*+*+*+*+*+*+*+*+*+*+*+*+*+*+*+*+*+*+*+*+*+
            BAR SHORTENED BY       1.000 PERCENT
 GRADIENT CRITERION IN FLEPO =     2.000


          FOR POINT   19 FIRST  STRUCTURE
 DISTANCE A - B      0.789743
 HEAT                0.734640
 GRADIENT NORM      81.312200
 DIRECTION COSINE    0.999985
 GEO-OK PM7 PRECISE
 Tranzitny stav H2 + Br2

  H(          1          X    )   0.00000000 +0    0.0000000 +0    0.0000000 +0
  H(          2          X    )   0.77745395 +1    0.0000000 +0    0.0000000 +0     1     0     0
 Br(          3          X    )   2.21434001 +1  113.3499148 +1    0.0000000 +0     1     2     0
 Br(          4          X    )   2.21540511 +1  111.0333668 +1   -0.8765967 +1     2     1     3
 
 *+*+*+*+*+*+*+*+*+*+*+*+*+*+*+*+*+*+*+*+*+*+*+*+*+*+*+*+*+*+*+*+*+*+*+*+*+*+*+*+
            BAR SHORTENED BY       1.000 PERCENT
 GRADIENT CRITERION IN FLEPO =     2.000


          FOR POINT   20 FIRST  STRUCTURE
 DISTANCE A - B      0.781845
 HEAT                1.383283
 GRADIENT NORM      83.063589
 DIRECTION COSINE    0.999985
 GEO-OK PM7 PRECISE
 Tranzitny stav H2 + Br2

  H(          1          X    )   0.00000000 +0    0.0000000 +0    0.0000000 +0
  H(          2          X    )   0.77792869 +1    0.0000000 +0    0.0000000 +0     1     0     0
 Br(          3          X    )   2.20795012 +1  113.4009185 +1    0.0000000 +0     1     2     0
 Br(          4          X    )   2.20866433 +1  111.2328252 +1   -0.5516484 +1     2     1     3
 
 TIME=     0.16
  REACTANTS AND PRODUCTS SWAPPED AROUND
 *+*+*+*+*+*+*+*+*+*+*+*+*+*+*+*+*+*+*+*+*+*+*+*+*+*+*+*+*+*+*+*+*+*+*+*+*+*+*+*+
            BAR SHORTENED BY       0.000 PERCENT
 GRADIENT CRITERION IN FLEPO =     2.000


          FOR POINT   21 SECOND STRUCTURE
 DISTANCE A - B      0.781845
 HEAT               18.772788
 GRADIENT NORM      90.364408
 DIRECTION COSINE    0.999718
 GEO-OK PM7 PRECISE
 Tranzitny stav H2 + Br2

  H(          1          X    )   0.00000000 +0    0.0000000 +0    0.0000000 +0
  H(          2          X    )   1.20170517 +1    0.0000000 +0    0.0000000 +0     1     0     0
 Br(          3          X    )   1.63691066 +1  122.2426463 +1    0.0000000 +0     1     2     0
 Br(          4          X    )   1.63477475 +1  120.6324620 +1   -0.4399541 +1     2     1     3
 
 TIME=     0.09
  REACTANTS AND PRODUCTS SWAPPED AROUND
 *+*+*+*+*+*+*+*+*+*+*+*+*+*+*+*+*+*+*+*+*+*+*+*+*+*+*+*+*+*+*+*+*+*+*+*+*+*+*+*+
            BAR SHORTENED BY       1.000 PERCENT
 GRADIENT CRITERION IN FLEPO =     2.000


          FOR POINT   22 FIRST  STRUCTURE
 DISTANCE A - B      0.774027
 HEAT                2.038489
 GRADIENT NORM      84.305179
 DIRECTION COSINE    0.999633
 GEO-OK PM7 PRECISE
 Tranzitny stav H2 + Br2

  H(          1          X    )   0.00000000 +0    0.0000000 +0    0.0000000 +0
  H(          2          X    )   0.77797705 +1    0.0000000 +0    0.0000000 +0     1     0     0
 Br(          3          X    )   2.19894484 +1  113.3749557 +1    0.0000000 +0     1     2     0
 Br(          4          X    )   2.20115532 +1  111.4595853 +1   -0.7500788 +1     2     1     3
 
 *+*+*+*+*+*+*+*+*+*+*+*+*+*+*+*+*+*+*+*+*+*+*+*+*+*+*+*+*+*+*+*+*+*+*+*+*+*+*+*+
            BAR SHORTENED BY       1.000 PERCENT
 GRADIENT CRITERION IN FLEPO =     2.000


          FOR POINT   23 FIRST  STRUCTURE
 DISTANCE A - B      0.766287
 HEAT                2.698244
 GRADIENT NORM      86.387825
 DIRECTION COSINE    0.999898
 GEO-OK PM7 PRECISE
 Tranzitny stav H2 + Br2

  H(          1          X    )   0.00000000 +0    0.0000000 +0    0.0000000 +0
  H(          2          X    )   0.77891706 +1    0.0000000 +0    0.0000000 +0     1     0     0
 Br(          3          X    )   2.19385034 +1  113.3886832 +1    0.0000000 +0     1     2     0
 Br(          4          X    )   2.19471439 +1  111.6982155 +1   -0.4047846 +1     2     1     3
 
 *+*+*+*+*+*+*+*+*+*+*+*+*+*+*+*+*+*+*+*+*+*+*+*+*+*+*+*+*+*+*+*+*+*+*+*+*+*+*+*+
            BAR SHORTENED BY       1.000 PERCENT
 GRADIENT CRITERION IN FLEPO =     2.000


          FOR POINT   24 FIRST  STRUCTURE
 DISTANCE A - B      0.758624
 HEAT                3.366717
 GRADIENT NORM      88.167008
 DIRECTION COSINE    0.999988
 GEO-OK PM7 PRECISE
 Tranzitny stav H2 + Br2

  H(          1          X    )   0.00000000 +0    0.0000000 +0    0.0000000 +0
  H(          2          X    )   0.77951630 +1    0.0000000 +0    0.0000000 +0     1     0     0
 Br(          3          X    )   2.18806248 +1  113.4029571 +1    0.0000000 +0     1     2     0
 Br(          4          X    )   2.18771920 +1  111.9219535 +1   -0.4562292 +1     2     1     3
 
 TIME=     0.16
  REACTANTS AND PRODUCTS SWAPPED AROUND
 *+*+*+*+*+*+*+*+*+*+*+*+*+*+*+*+*+*+*+*+*+*+*+*+*+*+*+*+*+*+*+*+*+*+*+*+*+*+*+*+
            BAR SHORTENED BY       0.000 PERCENT
 GRADIENT CRITERION IN FLEPO =     2.000


          FOR POINT   25 SECOND STRUCTURE
 DISTANCE A - B      0.758624
 HEAT               18.764627
 GRADIENT NORM      89.896770
 DIRECTION COSINE    0.999700
 GEO-OK PM7 PRECISE
 Tranzitny stav H2 + Br2

  H(          1          X    )   0.00000000 +0    0.0000000 +0    0.0000000 +0
  H(          2          X    )   1.19466164 +1    0.0000000 +0    0.0000000 +0     1     0     0
 Br(          3          X    )   1.63872102 +1  122.1241086 +1    0.0000000 +0     1     2     0
 Br(          4          X    )   1.63527224 +1  121.0861140 +1   -0.4381847 +1     2     1     3
 
 TIME=     0.05
  REACTANTS AND PRODUCTS SWAPPED AROUND
 *+*+*+*+*+*+*+*+*+*+*+*+*+*+*+*+*+*+*+*+*+*+*+*+*+*+*+*+*+*+*+*+*+*+*+*+*+*+*+*+
            BAR SHORTENED BY       1.000 PERCENT
 GRADIENT CRITERION IN FLEPO =     2.000


          FOR POINT   26 FIRST  STRUCTURE
 DISTANCE A - B      0.751038
 HEAT                4.038944
 GRADIENT NORM      89.590806
 DIRECTION COSINE    0.999810
 GEO-OK PM7 PRECISE
 Tranzitny stav H2 + Br2

  H(          1          X    )   0.00000000 +0    0.0000000 +0    0.0000000 +0
  H(          2          X    )   0.77950174 +1    0.0000000 +0    0.0000000 +0     1     0     0
 Br(          3          X    )   2.18199931 +1  113.4395312 +1    0.0000000 +0     1     2     0
 Br(          4          X    )   2.18176777 +1  112.1542431 +1   -0.2571497 +1     2     1     3
 
 *+*+*+*+*+*+*+*+*+*+*+*+*+*+*+*+*+*+*+*+*+*+*+*+*+*+*+*+*+*+*+*+*+*+*+*+*+*+*+*+
            BAR SHORTENED BY       1.000 PERCENT
 GRADIENT CRITERION IN FLEPO =     2.000


          FOR POINT   27 FIRST  STRUCTURE
 DISTANCE A - B      0.743527
 HEAT                4.719034
 GRADIENT NORM      91.495721
 DIRECTION COSINE    0.999875
 GEO-OK PM7 PRECISE
 Tranzitny stav H2 + Br2

  H(          1          X    )   0.00000000 +0    0.0000000 +0    0.0000000 +0
  H(          2          X    )   0.78059317 +1    0.0000000 +0    0.0000000 +0     1     0     0
 Br(          3          X    )   2.17394627 +1  113.4173649 +1    0.0000000 +0     1     2     0
 Br(          4          X    )   2.17475271 +1  112.3536994 +1   -0.4379194 +1     2     1     3
 
 *+*+*+*+*+*+*+*+*+*+*+*+*+*+*+*+*+*+*+*+*+*+*+*+*+*+*+*+*+*+*+*+*+*+*+*+*+*+*+*+
            BAR SHORTENED BY       1.000 PERCENT
 GRADIENT CRITERION IN FLEPO =     2.000


          FOR POINT   28 FIRST  STRUCTURE
 DISTANCE A - B      0.736092
 HEAT                5.404443
 GRADIENT NORM      93.135892
 DIRECTION COSINE    0.999971
 GEO-OK PM7 PRECISE
 Tranzitny stav H2 + Br2

  H(          1          X    )   0.00000000 +0    0.0000000 +0    0.0000000 +0
  H(          2          X    )   0.78090716 +1    0.0000000 +0    0.0000000 +0     1     0     0
 Br(          3          X    )   2.16891799 +1  113.5018297 +1    0.0000000 +0     1     2     0
 Br(          4          X    )   2.16893572 +1  112.5392911 +1   -0.4367777 +1     2     1     3
 
 TIME=     0.16
  REACTANTS AND PRODUCTS SWAPPED AROUND
 *+*+*+*+*+*+*+*+*+*+*+*+*+*+*+*+*+*+*+*+*+*+*+*+*+*+*+*+*+*+*+*+*+*+*+*+*+*+*+*+
            BAR SHORTENED BY       0.000 PERCENT
 GRADIENT CRITERION IN FLEPO =     2.000


          FOR POINT   29 SECOND STRUCTURE
 DISTANCE A - B      0.736092
 HEAT               18.756661
 GRADIENT NORM      89.346193
 DIRECTION COSINE    0.999812
 GEO-OK PM7 PRECISE
 Tranzitny stav H2 + Br2

  H(          1          X    )   0.00000000 +0    0.0000000 +0    0.0000000 +0
  H(          2          X    )   1.18658187 +1    0.0000000 +0    0.0000000 +0     1     0     0
 Br(          3          X    )   1.63945223 +1  122.0543811 +1    0.0000000 +0     1     2     0
 Br(          4          X    )   1.63691938 +1  121.5378389 +1   -0.1137260 +1     2     1     3
 
 TIME=     0.06
  REACTANTS AND PRODUCTS SWAPPED AROUND
 *+*+*+*+*+*+*+*+*+*+*+*+*+*+*+*+*+*+*+*+*+*+*+*+*+*+*+*+*+*+*+*+*+*+*+*+*+*+*+*+
            BAR SHORTENED BY       1.000 PERCENT
 GRADIENT CRITERION IN FLEPO =     2.000


          FOR POINT   30 FIRST  STRUCTURE
 DISTANCE A - B      0.728731
 HEAT                6.092220
 GRADIENT NORM      94.542917
 DIRECTION COSINE    0.999881
 GEO-OK PM7 PRECISE
 Tranzitny stav H2 + Br2

  H(          1          X    )   0.00000000 +0    0.0000000 +0    0.0000000 +0
  H(          2          X    )   0.78097862 +1    0.0000000 +0    0.0000000 +0     1     0     0
 Br(          3          X    )   2.16350063 +1  113.4815991 +1    0.0000000 +0     1     2     0
 Br(          4          X    )   2.16246095 +1  112.8173019 +1   -0.1454540 +1     2     1     3
 
 *+*+*+*+*+*+*+*+*+*+*+*+*+*+*+*+*+*+*+*+*+*+*+*+*+*+*+*+*+*+*+*+*+*+*+*+*+*+*+*+
            BAR SHORTENED BY       1.000 PERCENT
 GRADIENT CRITERION IN FLEPO =     2.000


          FOR POINT   31 FIRST  STRUCTURE
 DISTANCE A - B      0.721444
 HEAT                6.787147
 GRADIENT NORM      96.258969
 DIRECTION COSINE    0.999991
 GEO-OK PM7 PRECISE
 Tranzitny stav H2 + Br2

  H(          1          X    )   0.00000000 +0    0.0000000 +0    0.0000000 +0
  H(          2          X    )   0.78158878 +1    0.0000000 +0    0.0000000 +0     1     0     0
 Br(          3          X    )   2.15780438 +1  113.5089393 +1    0.0000000 +0     1     2     0
 Br(          4          X    )   2.15631641 +1  113.0264208 +1   -0.2158411 +1     2     1     3
 
 *+*+*+*+*+*+*+*+*+*+*+*+*+*+*+*+*+*+*+*+*+*+*+*+*+*+*+*+*+*+*+*+*+*+*+*+*+*+*+*+
            BAR SHORTENED BY       1.000 PERCENT
 GRADIENT CRITERION IN FLEPO =     2.000


          FOR POINT   32 FIRST  STRUCTURE
 DISTANCE A - B      0.714229
 HEAT                7.487649
 GRADIENT NORM      97.974275
 DIRECTION COSINE    0.999991
 GEO-OK PM7 PRECISE
 Tranzitny stav H2 + Br2

  H(          1          X    )   0.00000000 +0    0.0000000 +0    0.0000000 +0
  H(          2          X    )   0.78221584 +1    0.0000000 +0    0.0000000 +0     1     0     0
 Br(          3          X    )   2.15205677 +1  113.5749021 +1    0.0000000 +0     1     2     0
 Br(          4          X    )   2.15042937 +1  113.1970989 +1   -0.2229401 +1     2     1     3
 
 TIME=     0.15
  REACTANTS AND PRODUCTS SWAPPED AROUND
 *+*+*+*+*+*+*+*+*+*+*+*+*+*+*+*+*+*+*+*+*+*+*+*+*+*+*+*+*+*+*+*+*+*+*+*+*+*+*+*+
            BAR SHORTENED BY       0.000 PERCENT
 GRADIENT CRITERION IN FLEPO =     2.000


          FOR POINT   33 SECOND STRUCTURE
 DISTANCE A - B      0.714229
 HEAT               18.756661
 GRADIENT NORM      89.346213
 DIRECTION COSINE    0.999792
 GEO-OK PM7 PRECISE
 Tranzitny stav H2 + Br2

  H(          1          X    )   0.00000000 +0    0.0000000 +0    0.0000000 +0
  H(          2          X    )   1.18658187 +1    0.0000000 +0    0.0000000 +0     1     0     0
 Br(          3          X    )   1.63945223 +1  122.0543811 +1    0.0000000 +0     1     2     0
 Br(          4          X    )   1.63691938 +1  121.5378389 +1   -0.1137260 +1     2     1     3
 
 TIME=     0.03
  REACTANTS AND PRODUCTS SWAPPED AROUND
 *+*+*+*+*+*+*+*+*+*+*+*+*+*+*+*+*+*+*+*+*+*+*+*+*+*+*+*+*+*+*+*+*+*+*+*+*+*+*+*+
            BAR SHORTENED BY       1.000 PERCENT
 GRADIENT CRITERION IN FLEPO =     2.000


          FOR POINT   34 FIRST  STRUCTURE
 DISTANCE A - B      0.707087
 HEAT                8.193351
 GRADIENT NORM      99.671453
 DIRECTION COSINE    0.999723
 GEO-OK PM7 PRECISE
 Tranzitny stav H2 + Br2

  H(          1          X    )   0.00000000 +0    0.0000000 +0    0.0000000 +0
  H(          2          X    )   0.78283303 +1    0.0000000 +0    0.0000000 +0     1     0     0
 Br(          3          X    )   2.14633837 +1  113.6648350 +1    0.0000000 +0     1     2     0
 Br(          4          X    )   2.14471315 +1  113.3445766 +1   -0.2233382 +1     2     1     3
 
 *+*+*+*+*+*+*+*+*+*+*+*+*+*+*+*+*+*+*+*+*+*+*+*+*+*+*+*+*+*+*+*+*+*+*+*+*+*+*+*+
            BAR SHORTENED BY       1.000 PERCENT
 GRADIENT CRITERION IN FLEPO =     2.000


          FOR POINT   35 FIRST  STRUCTURE
 DISTANCE A - B      0.700016
 HEAT                8.903949
 GRADIENT NORM     101.357727
 DIRECTION COSINE    0.999992
 GEO-OK PM7 PRECISE
 Tranzitny stav H2 + Br2

  H(          1          X    )   0.00000000 +0    0.0000000 +0    0.0000000 +0
  H(          2          X    )   0.78345349 +1    0.0000000 +0    0.0000000 +0     1     0     0
 Br(          3          X    )   2.14069034 +1  113.7694633 +1    0.0000000 +0     1     2     0
 Br(          4          X    )   2.13912576 +1  113.4775882 +1   -0.2220893 +1     2     1     3
 
 *+*+*+*+*+*+*+*+*+*+*+*+*+*+*+*+*+*+*+*+*+*+*+*+*+*+*+*+*+*+*+*+*+*+*+*+*+*+*+*+
            BAR SHORTENED BY       1.000 PERCENT
 GRADIENT CRITERION IN FLEPO =     2.000


          FOR POINT   36 FIRST  STRUCTURE
 DISTANCE A - B      0.693016
 HEAT                9.619191
 GRADIENT NORM     103.033187
 DIRECTION COSINE    0.999992
 GEO-OK PM7 PRECISE
 Tranzitny stav H2 + Br2

  H(          1          X    )   0.00000000 +0    0.0000000 +0    0.0000000 +0
  H(          2          X    )   0.78407835 +1    0.0000000 +0    0.0000000 +0     1     0     0
 Br(          3          X    )   2.13513307 +1  113.8830346 +1    0.0000000 +0     1     2     0
 Br(          4          X    )   2.13364459 +1  113.6017979 +1   -0.2204737 +1     2     1     3
 
 TIME=     0.16
  REACTANTS AND PRODUCTS SWAPPED AROUND
 *+*+*+*+*+*+*+*+*+*+*+*+*+*+*+*+*+*+*+*+*+*+*+*+*+*+*+*+*+*+*+*+*+*+*+*+*+*+*+*+
            BAR SHORTENED BY       0.000 PERCENT
 GRADIENT CRITERION IN FLEPO =     2.000


          FOR POINT   37 SECOND STRUCTURE
 DISTANCE A - B      0.693016
 HEAT               18.743904
 GRADIENT NORM      88.696659
 DIRECTION COSINE    0.999684
 GEO-OK PM7 PRECISE
 Tranzitny stav H2 + Br2

  H(          1          X    )   0.00000000 +0    0.0000000 +0    0.0000000 +0
  H(          2          X    )   1.17507003 +1    0.0000000 +0    0.0000000 +0     1     0     0
 Br(          3          X    )   1.64033359 +1  122.2937730 +1    0.0000000 +0     1     2     0
 Br(          4          X    )   1.64196107 +1  121.8823469 +1   -0.2849288 +1     2     1     3
 
 TIME=     0.05
  REACTANTS AND PRODUCTS SWAPPED AROUND
 *+*+*+*+*+*+*+*+*+*+*+*+*+*+*+*+*+*+*+*+*+*+*+*+*+*+*+*+*+*+*+*+*+*+*+*+*+*+*+*+
            BAR SHORTENED BY       1.000 PERCENT
 GRADIENT CRITERION IN FLEPO =     2.000


          FOR POINT   38 FIRST  STRUCTURE
 DISTANCE A - B      0.686086
 HEAT               10.334156
 GRADIENT NORM     104.186473
 DIRECTION COSINE    0.999818
 GEO-OK PM7 PRECISE
 Tranzitny stav H2 + Br2

  H(          1          X    )   0.00000000 +0    0.0000000 +0    0.0000000 +0
  H(          2          X    )   0.78387288 +1    0.0000000 +0    0.0000000 +0     1     0     0
 Br(          3          X    )   2.12936614 +1  114.0222472 +1    0.0000000 +0     1     2     0
 Br(          4          X    )   2.12907446 +1  113.7357351 +1   -0.2608274 +1     2     1     3
 
 *+*+*+*+*+*+*+*+*+*+*+*+*+*+*+*+*+*+*+*+*+*+*+*+*+*+*+*+*+*+*+*+*+*+*+*+*+*+*+*+
            BAR SHORTENED BY       1.000 PERCENT
 GRADIENT CRITERION IN FLEPO =     2.000


          FOR POINT   39 FIRST  STRUCTURE
 DISTANCE A - B      0.679225
 HEAT               11.053991
 GRADIENT NORM     105.799734
 DIRECTION COSINE    0.999993
 GEO-OK PM7 PRECISE
 Tranzitny stav H2 + Br2

  H(          1          X    )   0.00000000 +0    0.0000000 +0    0.0000000 +0
  H(          2          X    )   0.78445541 +1    0.0000000 +0    0.0000000 +0     1     0     0
 Br(          3          X    )   2.12384478 +1  114.1344624 +1    0.0000000 +0     1     2     0
 Br(          4          X    )   2.12416505 +1  113.8644503 +1   -0.3034011 +1     2     1     3
 
 *+*+*+*+*+*+*+*+*+*+*+*+*+*+*+*+*+*+*+*+*+*+*+*+*+*+*+*+*+*+*+*+*+*+*+*+*+*+*+*+
            BAR SHORTENED BY       1.000 PERCENT
 GRADIENT CRITERION IN FLEPO =     2.000


          FOR POINT   40 FIRST  STRUCTURE
 DISTANCE A - B      0.672433
 HEAT               11.777797
 GRADIENT NORM     107.419097
 DIRECTION COSINE    0.999992
 GEO-OK PM7 PRECISE
 Tranzitny stav H2 + Br2

  H(          1          X    )   0.00000000 +0    0.0000000 +0    0.0000000 +0
  H(          2          X    )   0.78507544 +1    0.0000000 +0    0.0000000 +0     1     0     0
 Br(          3          X    )   2.11854642 +1  114.2450540 +1    0.0000000 +0     1     2     0
 Br(          4          X    )   2.11916753 +1  113.9929320 +1   -0.3214316 +1     2     1     3
 
 TIME=     0.16
  REACTANTS AND PRODUCTS SWAPPED AROUND
 *+*+*+*+*+*+*+*+*+*+*+*+*+*+*+*+*+*+*+*+*+*+*+*+*+*+*+*+*+*+*+*+*+*+*+*+*+*+*+*+
            BAR SHORTENED BY       0.000 PERCENT
 GRADIENT CRITERION IN FLEPO =     2.000


          FOR POINT   41 SECOND STRUCTURE
 DISTANCE A - B      0.672433
 HEAT               18.736667
 GRADIENT NORM      88.123940
 DIRECTION COSINE    0.999852
 GEO-OK PM7 PRECISE
 Tranzitny stav H2 + Br2

  H(          1          X    )   0.00000000 +0    0.0000000 +0    0.0000000 +0
  H(          2          X    )   1.16895441 +1    0.0000000 +0    0.0000000 +0     1     0     0
 Br(          3          X    )   1.64100458 +1  122.3555094 +1    0.0000000 +0     1     2     0
 Br(          4          X    )   1.64017596 +1  122.0720380 +1   -0.4456812 +1     2     1     3
 
 TIME=     0.06
  REACTANTS AND PRODUCTS SWAPPED AROUND
 *+*+*+*+*+*+*+*+*+*+*+*+*+*+*+*+*+*+*+*+*+*+*+*+*+*+*+*+*+*+*+*+*+*+*+*+*+*+*+*+
            BAR SHORTENED BY       1.000 PERCENT
 GRADIENT CRITERION IN FLEPO =     2.000


          FOR POINT   42 FIRST  STRUCTURE
 DISTANCE A - B      0.665708
 HEAT               12.503176
 GRADIENT NORM     108.690325
 DIRECTION COSINE    0.999897
 GEO-OK PM7 PRECISE
 Tranzitny stav H2 + Br2

  H(          1          X    )   0.00000000 +0    0.0000000 +0    0.0000000 +0
  H(          2          X    )   0.78517152 +1    0.0000000 +0    0.0000000 +0     1     0     0
 Br(          3          X    )   2.11352457 +1  114.3288496 +1    0.0000000 +0     1     2     0
 Br(          4          X    )   2.11364543 +1  114.1592426 +1   -0.4128396 +1     2     1     3
 
 *+*+*+*+*+*+*+*+*+*+*+*+*+*+*+*+*+*+*+*+*+*+*+*+*+*+*+*+*+*+*+*+*+*+*+*+*+*+*+*+
            BAR SHORTENED BY       1.000 PERCENT
 GRADIENT CRITERION IN FLEPO =     2.000


          FOR POINT   43 FIRST  STRUCTURE
 DISTANCE A - B      0.659051
 HEAT               13.232022
 GRADIENT NORM     110.287726
 DIRECTION COSINE    0.999991
 GEO-OK PM7 PRECISE
 Tranzitny stav H2 + Br2

  H(          1          X    )   0.00000000 +0    0.0000000 +0    0.0000000 +0
  H(          2          X    )   0.78581699 +1    0.0000000 +0    0.0000000 +0     1     0     0
 Br(          3          X    )   2.10855596 +1  114.4351168 +1    0.0000000 +0     1     2     0
 Br(          4          X    )   2.10857553 +1  114.2887678 +1   -0.4193917 +1     2     1     3
 
 *+*+*+*+*+*+*+*+*+*+*+*+*+*+*+*+*+*+*+*+*+*+*+*+*+*+*+*+*+*+*+*+*+*+*+*+*+*+*+*+
            BAR SHORTENED BY       1.000 PERCENT
 GRADIENT CRITERION IN FLEPO =     2.000


          FOR POINT   44 FIRST  STRUCTURE
 DISTANCE A - B      0.652461
 HEAT               13.963812
 GRADIENT NORM     111.854525
 DIRECTION COSINE    0.999992
 GEO-OK PM7 PRECISE
 Tranzitny stav H2 + Br2

  H(          1          X    )   0.00000000 +0    0.0000000 +0    0.0000000 +0
  H(          2          X    )   0.78643802 +1    0.0000000 +0    0.0000000 +0     1     0     0
 Br(          3          X    )   2.10368511 +1  114.5499349 +1    0.0000000 +0     1     2     0
 Br(          4          X    )   2.10364925 +1  114.4118940 +1   -0.3653214 +1     2     1     3
 
 TIME=     0.15
  REACTANTS AND PRODUCTS SWAPPED AROUND
 *+*+*+*+*+*+*+*+*+*+*+*+*+*+*+*+*+*+*+*+*+*+*+*+*+*+*+*+*+*+*+*+*+*+*+*+*+*+*+*+
            BAR SHORTENED BY       0.000 PERCENT
 GRADIENT CRITERION IN FLEPO =     2.000


          FOR POINT   45 SECOND STRUCTURE
 DISTANCE A - B      0.652461
 HEAT               18.736667
 GRADIENT NORM      88.123974
 DIRECTION COSINE    0.999756
 GEO-OK PM7 PRECISE
 Tranzitny stav H2 + Br2

  H(          1          X    )   0.00000000 +0    0.0000000 +0    0.0000000 +0
  H(          2          X    )   1.16895441 +1    0.0000000 +0    0.0000000 +0     1     0     0
 Br(          3          X    )   1.64100458 +1  122.3555094 +1    0.0000000 +0     1     2     0
 Br(          4          X    )   1.64017596 +1  122.0720380 +1   -0.4456812 +1     2     1     3
 
 TIME=     0.03
  REACTANTS AND PRODUCTS SWAPPED AROUND
 *+*+*+*+*+*+*+*+*+*+*+*+*+*+*+*+*+*+*+*+*+*+*+*+*+*+*+*+*+*+*+*+*+*+*+*+*+*+*+*+
            BAR SHORTENED BY       1.000 PERCENT
 GRADIENT CRITERION IN FLEPO =     2.000


          FOR POINT   46 FIRST  STRUCTURE
 DISTANCE A - B      0.645936
 HEAT               14.698496
 GRADIENT NORM     113.405393
 DIRECTION COSINE    0.999666
 GEO-OK PM7 PRECISE
 Tranzitny stav H2 + Br2

  H(          1          X    )   0.00000000 +0    0.0000000 +0    0.0000000 +0
  H(          2          X    )   0.78706033 +1    0.0000000 +0    0.0000000 +0     1     0     0
 Br(          3          X    )   2.09889731 +1  114.6686109 +1    0.0000000 +0     1     2     0
 Br(          4          X    )   2.09882580 +1  114.5308017 +1   -0.3979630 +1     2     1     3
 
 *+*+*+*+*+*+*+*+*+*+*+*+*+*+*+*+*+*+*+*+*+*+*+*+*+*+*+*+*+*+*+*+*+*+*+*+*+*+*+*+
            BAR SHORTENED BY       1.000 PERCENT
 GRADIENT CRITERION IN FLEPO =     2.000


          FOR POINT   47 FIRST  STRUCTURE
 DISTANCE A - B      0.639477
 HEAT               15.435915
 GRADIENT NORM     114.932646
 DIRECTION COSINE    0.999993
 GEO-OK PM7 PRECISE
 Tranzitny stav H2 + Br2

  H(          1          X    )   0.00000000 +0    0.0000000 +0    0.0000000 +0
  H(          2          X    )   0.78767187 +1    0.0000000 +0    0.0000000 +0     1     0     0
 Br(          3          X    )   2.09419494 +1  114.7896376 +1    0.0000000 +0     1     2     0
 Br(          4          X    )   2.09408714 +1  114.6477715 +1   -0.4238488 +1     2     1     3
 
 *+*+*+*+*+*+*+*+*+*+*+*+*+*+*+*+*+*+*+*+*+*+*+*+*+*+*+*+*+*+*+*+*+*+*+*+*+*+*+*+
            BAR SHORTENED BY       1.000 PERCENT
 GRADIENT CRITERION IN FLEPO =     2.000


          FOR POINT   48 FIRST  STRUCTURE
 DISTANCE A - B      0.633082
 HEAT               16.175713
 GRADIENT NORM     116.455147
 DIRECTION COSINE    0.999992
 GEO-OK PM7 PRECISE
 Tranzitny stav H2 + Br2

  H(          1          X    )   0.00000000 +0    0.0000000 +0    0.0000000 +0
  H(          2          X    )   0.78830357 +1    0.0000000 +0    0.0000000 +0     1     0     0
 Br(          3          X    )   2.08957610 +1  114.9118383 +1    0.0000000 +0     1     2     0
 Br(          4          X    )   2.08943646 +1  114.7628336 +1   -0.4366499 +1     2     1     3
 
 TIME=     0.16
  REACTANTS AND PRODUCTS SWAPPED AROUND
 *+*+*+*+*+*+*+*+*+*+*+*+*+*+*+*+*+*+*+*+*+*+*+*+*+*+*+*+*+*+*+*+*+*+*+*+*+*+*+*+
            BAR SHORTENED BY       0.000 PERCENT
 GRADIENT CRITERION IN FLEPO =     2.000


          FOR POINT   49 SECOND STRUCTURE
 DISTANCE A - B      0.633082
 HEAT               18.722612
 GRADIENT NORM      87.633948
 DIRECTION COSINE    0.999552
 GEO-OK PM7 PRECISE
 Tranzitny stav H2 + Br2

  H(          1          X    )   0.00000000 +0    0.0000000 +0    0.0000000 +0
  H(          2          X    )   1.15980830 +1    0.0000000 +0    0.0000000 +0     1     0     0
 Br(          3          X    )   1.64187954 +1  122.5934086 +1    0.0000000 +0     1     2     0
 Br(          4          X    )   1.64469985 +1  122.3135733 +1   -0.4324674 +1     2     1     3
 
 TIME=     0.05
  REACTANTS AND PRODUCTS SWAPPED AROUND
 *+*+*+*+*+*+*+*+*+*+*+*+*+*+*+*+*+*+*+*+*+*+*+*+*+*+*+*+*+*+*+*+*+*+*+*+*+*+*+*+
            BAR SHORTENED BY       1.000 PERCENT
 GRADIENT CRITERION IN FLEPO =     2.000


          FOR POINT   50 FIRST  STRUCTURE
 DISTANCE A - B      0.626751
 HEAT               16.912979
 GRADIENT NORM     117.446488
 DIRECTION COSINE    0.999683
 GEO-OK PM7 PRECISE
 Tranzitny stav H2 + Br2

  H(          1          X    )   0.00000000 +0    0.0000000 +0    0.0000000 +0
  H(          2          X    )   0.78813295 +1    0.0000000 +0    0.0000000 +0     1     0     0
 Br(          3          X    )   2.08499211 +1  115.0782593 +1    0.0000000 +0     1     2     0
 Br(          4          X    )   2.08578708 +1  114.8747698 +1   -0.3324998 +1     2     1     3
 
 *+*+*+*+*+*+*+*+*+*+*+*+*+*+*+*+*+*+*+*+*+*+*+*+*+*+*+*+*+*+*+*+*+*+*+*+*+*+*+*+
            BAR SHORTENED BY       1.000 PERCENT
 GRADIENT CRITERION IN FLEPO =     2.000


          FOR POINT   51 FIRST  STRUCTURE
 DISTANCE A - B      0.620484
 HEAT               17.653373
 GRADIENT NORM     118.890069
 DIRECTION COSINE    0.999994
 GEO-OK PM7 PRECISE
 Tranzitny stav H2 + Br2

  H(          1          X    )   0.00000000 +0    0.0000000 +0    0.0000000 +0
  H(          2          X    )   0.78871386 +1    0.0000000 +0    0.0000000 +0     1     0     0
 Br(          3          X    )   2.08049193 +1  115.1987082 +1    0.0000000 +0     1     2     0
 Br(          4          X    )   2.08159988 +1  114.9951075 +1   -0.3839714 +1     2     1     3
 
 *+*+*+*+*+*+*+*+*+*+*+*+*+*+*+*+*+*+*+*+*+*+*+*+*+*+*+*+*+*+*+*+*+*+*+*+*+*+*+*+
            BAR SHORTENED BY       1.000 PERCENT
 GRADIENT CRITERION IN FLEPO =     2.000


          FOR POINT   52 FIRST  STRUCTURE
 DISTANCE A - B      0.614279
 HEAT               18.395440
 GRADIENT NORM     120.345315
 DIRECTION COSINE    0.999992
 GEO-OK PM7 PRECISE
 Tranzitny stav H2 + Br2

  H(          1          X    )   0.00000000 +0    0.0000000 +0    0.0000000 +0
  H(          2          X    )   0.78934185 +1    0.0000000 +0    0.0000000 +0     1     0     0
 Br(          3          X    )   2.07611650 +1  115.3144936 +1    0.0000000 +0     1     2     0
 Br(          4          X    )   2.07733708 +1  115.1166046 +1   -0.4128302 +1     2     1     3
 
 TIME=     0.16
  REACTANTS AND PRODUCTS SWAPPED AROUND
 *+*+*+*+*+*+*+*+*+*+*+*+*+*+*+*+*+*+*+*+*+*+*+*+*+*+*+*+*+*+*+*+*+*+*+*+*+*+*+*+
            BAR SHORTENED BY       0.000 PERCENT
 GRADIENT CRITERION IN FLEPO =     2.000


          FOR POINT   53 SECOND STRUCTURE
 DISTANCE A - B      0.614279
 HEAT               18.710158
 GRADIENT NORM      86.958249
 DIRECTION COSINE    0.999749
 GEO-OK PM7 PRECISE
 Tranzitny stav H2 + Br2

  H(          1          X    )   0.00000000 +0    0.0000000 +0    0.0000000 +0
  H(          2          X    )   1.14978009 +1    0.0000000 +0    0.0000000 +0     1     0     0
 Br(          3          X    )   1.64452243 +1  122.8468735 +1    0.0000000 +0     1     2     0
 Br(          4          X    )   1.64501255 +1  122.5441852 +1   -0.3727723 +1     2     1     3
 
 TIME=     0.05
  REACTANTS AND PRODUCTS SWAPPED AROUND
 *+*+*+*+*+*+*+*+*+*+*+*+*+*+*+*+*+*+*+*+*+*+*+*+*+*+*+*+*+*+*+*+*+*+*+*+*+*+*+*+
            BAR SHORTENED BY       1.000 PERCENT
 GRADIENT CRITERION IN FLEPO =     2.000


          FOR POINT   54 FIRST  STRUCTURE
 DISTANCE A - B      0.608136
 HEAT               19.133794
 GRADIENT NORM     121.139534
 DIRECTION COSINE    0.999888
 GEO-OK PM7 PRECISE
 Tranzitny stav H2 + Br2

  H(          1          X    )   0.00000000 +0    0.0000000 +0    0.0000000 +0
  H(          2          X    )   0.78896746 +1    0.0000000 +0    0.0000000 +0     1     0     0
 Br(          3          X    )   2.07245272 +1  115.4661328 +1    0.0000000 +0     1     2     0
 Br(          4          X    )   2.07315195 +1  115.2469499 +1   -0.3248180 +1     2     1     3
 
 TIME=     0.05
  REACTANTS AND PRODUCTS SWAPPED AROUND
 *+*+*+*+*+*+*+*+*+*+*+*+*+*+*+*+*+*+*+*+*+*+*+*+*+*+*+*+*+*+*+*+*+*+*+*+*+*+*+*+
            BAR SHORTENED BY       1.000 PERCENT
 GRADIENT CRITERION IN FLEPO =     2.000


          FOR POINT   55 SECOND STRUCTURE
 DISTANCE A - B      0.602055
 HEAT               19.242024
 GRADIENT NORM      87.984506
 DIRECTION COSINE    0.999763
 GEO-OK PM7 PRECISE
 Tranzitny stav H2 + Br2

  H(          1          X    )   0.00000000 +0    0.0000000 +0    0.0000000 +0
  H(          2          X    )   1.14617196 +1    0.0000000 +0    0.0000000 +0     1     0     0
 Br(          3          X    )   1.64863145 +1  122.7542624 +1    0.0000000 +0     1     2     0
 Br(          4          X    )   1.64912884 +1  122.4527853 +1   -0.3719394 +1     2     1     3
 
 TIME=     0.03
  REACTANTS AND PRODUCTS SWAPPED AROUND
 *+*+*+*+*+*+*+*+*+*+*+*+*+*+*+*+*+*+*+*+*+*+*+*+*+*+*+*+*+*+*+*+*+*+*+*+*+*+*+*+
            BAR SHORTENED BY       1.000 PERCENT
 GRADIENT CRITERION IN FLEPO =     2.000


          FOR POINT   56 FIRST  STRUCTURE
 DISTANCE A - B      0.596034
 HEAT               19.866996
 GRADIENT NORM     122.521786
 DIRECTION COSINE    0.999679
 GEO-OK PM7 PRECISE
 Tranzitny stav H2 + Br2

  H(          1          X    )   0.00000000 +0    0.0000000 +0    0.0000000 +0
  H(          2          X    )   0.78957027 +1    0.0000000 +0    0.0000000 +0     1     0     0
 Br(          3          X    )   2.06850127 +1  115.5848719 +1    0.0000000 +0     1     2     0
 Br(          4          X    )   2.06889064 +1  115.3619431 +1   -0.3557456 +1     2     1     3
 
 TIME=     0.05
  REACTANTS AND PRODUCTS SWAPPED AROUND
 *+*+*+*+*+*+*+*+*+*+*+*+*+*+*+*+*+*+*+*+*+*+*+*+*+*+*+*+*+*+*+*+*+*+*+*+*+*+*+*+
            BAR SHORTENED BY       1.000 PERCENT
 GRADIENT CRITERION IN FLEPO =     2.000


          FOR POINT   57 SECOND STRUCTURE
 DISTANCE A - B      0.590074
 HEAT               19.757021
 GRADIENT NORM      88.218317
 DIRECTION COSINE    0.999783
 GEO-OK PM7 PRECISE
 Tranzitny stav H2 + Br2

  H(          1          X    )   0.00000000 +0    0.0000000 +0    0.0000000 +0
  H(          2          X    )   1.13218414 +1    0.0000000 +0    0.0000000 +0     1     0     0
 Br(          3          X    )   1.65472652 +1  122.7988998 +1    0.0000000 +0     1     2     0
 Br(          4          X    )   1.65375336 +1  122.7218345 +1   -0.2956356 +1     2     1     3
 
 *+*+*+*+*+*+*+*+*+*+*+*+*+*+*+*+*+*+*+*+*+*+*+*+*+*+*+*+*+*+*+*+*+*+*+*+*+*+*+*+
            BAR SHORTENED BY       1.000 PERCENT
 GRADIENT CRITERION IN FLEPO =     2.000


          FOR POINT   58 SECOND STRUCTURE
 DISTANCE A - B      0.584173
 HEAT               20.280263
 GRADIENT NORM      89.140205
 DIRECTION COSINE    0.999978
 GEO-OK PM7 PRECISE
 Tranzitny stav H2 + Br2

  H(          1          X    )   0.00000000 +0    0.0000000 +0    0.0000000 +0
  H(          2          X    )   1.12875798 +1    0.0000000 +0    0.0000000 +0     1     0     0
 Br(          3          X    )   1.65869937 +1  122.7087935 +1    0.0000000 +0     1     2     0
 Br(          4          X    )   1.65773964 +1  122.6306183 +1   -0.2960344 +1     2     1     3
 
 TIME=     0.09
  REACTANTS AND PRODUCTS SWAPPED AROUND
 *+*+*+*+*+*+*+*+*+*+*+*+*+*+*+*+*+*+*+*+*+*+*+*+*+*+*+*+*+*+*+*+*+*+*+*+*+*+*+*+
            BAR SHORTENED BY       1.000 PERCENT
 GRADIENT CRITERION IN FLEPO =     2.000


          FOR POINT   59 FIRST  STRUCTURE
 DISTANCE A - B      0.578331
 HEAT               20.581336
 GRADIENT NORM     123.173665
 DIRECTION COSINE    0.999831
 GEO-OK PM7 PRECISE
 Tranzitny stav H2 + Br2

  H(          1          X    )   0.00000000 +0    0.0000000 +0    0.0000000 +0
  H(          2          X    )   0.78906482 +1    0.0000000 +0    0.0000000 +0     1     0     0
 Br(          3          X    )   2.06465208 +1  115.6816332 +1    0.0000000 +0     1     2     0
 Br(          4          X    )   2.06484394 +1  115.5329678 +1   -0.2740802 +1     2     1     3
 
 TIME=     0.05
  REACTANTS AND PRODUCTS SWAPPED AROUND
 *+*+*+*+*+*+*+*+*+*+*+*+*+*+*+*+*+*+*+*+*+*+*+*+*+*+*+*+*+*+*+*+*+*+*+*+*+*+*+*+
            BAR SHORTENED BY       1.000 PERCENT
 GRADIENT CRITERION IN FLEPO =     2.000


          FOR POINT   60 SECOND STRUCTURE
 DISTANCE A - B      0.572548
 HEAT               20.792384
 GRADIENT NORM      89.588673
 DIRECTION COSINE    0.999861
 GEO-OK PM7 PRECISE
 Tranzitny stav H2 + Br2

  H(          1          X    )   0.00000000 +0    0.0000000 +0    0.0000000 +0
  H(          2          X    )   1.12028654 +1    0.0000000 +0    0.0000000 +0     1     0     0
 Br(          3          X    )   1.66127262 +1  122.7690851 +1    0.0000000 +0     1     2     0
 Br(          4          X    )   1.66189892 +1  122.6012735 +1   -0.0879347 +1     2     1     3
 
 TIME=     0.05
  REACTANTS AND PRODUCTS SWAPPED AROUND
 *+*+*+*+*+*+*+*+*+*+*+*+*+*+*+*+*+*+*+*+*+*+*+*+*+*+*+*+*+*+*+*+*+*+*+*+*+*+*+*+
            BAR SHORTENED BY       1.000 PERCENT
 GRADIENT CRITERION IN FLEPO =     2.000


          FOR POINT   61 FIRST  STRUCTURE
 DISTANCE A - B      0.566823
 HEAT               21.287822
 GRADIENT NORM     124.157958
 DIRECTION COSINE    0.999882
 GEO-OK PM7 PRECISE
 Tranzitny stav H2 + Br2

  H(          1          X    )   0.00000000 +0    0.0000000 +0    0.0000000 +0
  H(          2          X    )   0.78912155 +1    0.0000000 +0    0.0000000 +0     1     0     0
 Br(          3          X    )   2.06040923 +1  115.7891403 +1    0.0000000 +0     1     2     0
 Br(          4          X    )   2.06092431 +1  115.6618157 +1   -0.1231296 +1     2     1     3
 
 TIME=     0.05
  REACTANTS AND PRODUCTS SWAPPED AROUND
 *+*+*+*+*+*+*+*+*+*+*+*+*+*+*+*+*+*+*+*+*+*+*+*+*+*+*+*+*+*+*+*+*+*+*+*+*+*+*+*+
            BAR SHORTENED BY       1.000 PERCENT
 GRADIENT CRITERION IN FLEPO =     2.000


          FOR POINT   62 SECOND STRUCTURE
 DISTANCE A - B      0.561154
 HEAT               21.302485
 GRADIENT NORM      90.422169
 DIRECTION COSINE    0.999800
 GEO-OK PM7 PRECISE
 Tranzitny stav H2 + Br2

  H(          1          X    )   0.00000000 +0    0.0000000 +0    0.0000000 +0
  H(          2          X    )   1.11697489 +1    0.0000000 +0    0.0000000 +0     1     0     0
 Br(          3          X    )   1.66511270 +1  122.6828715 +1    0.0000000 +0     1     2     0
 Br(          4          X    )   1.66574053 +1  122.5156830 +1   -0.0882570 +1     2     1     3
 
 TIME=     0.03
  REACTANTS AND PRODUCTS SWAPPED AROUND
 *+*+*+*+*+*+*+*+*+*+*+*+*+*+*+*+*+*+*+*+*+*+*+*+*+*+*+*+*+*+*+*+*+*+*+*+*+*+*+*+
            BAR SHORTENED BY       1.000 PERCENT
 GRADIENT CRITERION IN FLEPO =     2.000


          FOR POINT   63 FIRST  STRUCTURE
 DISTANCE A - B      0.555543
 HEAT               21.987939
 GRADIENT NORM     125.422783
 DIRECTION COSINE    0.999711
 GEO-OK PM7 PRECISE
 Tranzitny stav H2 + Br2

  H(          1          X    )   0.00000000 +0    0.0000000 +0    0.0000000 +0
  H(          2          X    )   0.78969569 +1    0.0000000 +0    0.0000000 +0     1     0     0
 Br(          3          X    )   2.05655940 +1  115.9024945 +1    0.0000000 +0     1     2     0
 Br(          4          X    )   2.05728125 +1  115.7694192 +1   -0.1357077 +1     2     1     3
 
 TIME=     0.05
  REACTANTS AND PRODUCTS SWAPPED AROUND
 *+*+*+*+*+*+*+*+*+*+*+*+*+*+*+*+*+*+*+*+*+*+*+*+*+*+*+*+*+*+*+*+*+*+*+*+*+*+*+*+
            BAR SHORTENED BY       1.000 PERCENT
 GRADIENT CRITERION IN FLEPO =     2.000


          FOR POINT   64 SECOND STRUCTURE
 DISTANCE A - B      0.549987
 HEAT               21.797059
 GRADIENT NORM      90.724252
 DIRECTION COSINE    0.999722
 GEO-OK PM7 PRECISE
 Tranzitny stav H2 + Br2

  H(          1          X    )   0.00000000 +0    0.0000000 +0    0.0000000 +0
  H(          2          X    )   1.10644374 +1    0.0000000 +0    0.0000000 +0     1     0     0
 Br(          3          X    )   1.67127390 +1  122.7638968 +1    0.0000000 +0     1     2     0
 Br(          4          X    )   1.67217364 +1  122.6472911 +1   -0.1096823 +1     2     1     3
 
 *+*+*+*+*+*+*+*+*+*+*+*+*+*+*+*+*+*+*+*+*+*+*+*+*+*+*+*+*+*+*+*+*+*+*+*+*+*+*+*+
            BAR SHORTENED BY       1.000 PERCENT
 GRADIENT CRITERION IN FLEPO =     2.000


          FOR POINT   65 SECOND STRUCTURE
 DISTANCE A - B      0.544487
 HEAT               22.297998
 GRADIENT NORM      91.467063
 DIRECTION COSINE    0.999984
 GEO-OK PM7 PRECISE
 Tranzitny stav H2 + Br2

  H(          1          X    )   0.00000000 +0    0.0000000 +0    0.0000000 +0
  H(          2          X    )   1.10327625 +1    0.0000000 +0    0.0000000 +0     1     0     0
 Br(          3          X    )   1.67498051 +1  122.6797628 +1    0.0000000 +0     1     2     0
 Br(          4          X    )   1.67587924 +1  122.5631525 +1   -0.1098985 +1     2     1     3
 
 TIME=     0.09
  REACTANTS AND PRODUCTS SWAPPED AROUND
 *+*+*+*+*+*+*+*+*+*+*+*+*+*+*+*+*+*+*+*+*+*+*+*+*+*+*+*+*+*+*+*+*+*+*+*+*+*+*+*+
            BAR SHORTENED BY       1.000 PERCENT
 GRADIENT CRITERION IN FLEPO =     2.000


          FOR POINT   66 FIRST  STRUCTURE
 DISTANCE A - B      0.539043
 HEAT               22.669626
 GRADIENT NORM     126.105493
 DIRECTION COSINE    0.999703
 GEO-OK PM7 PRECISE
 Tranzitny stav H2 + Br2

  H(          1          X    )   0.00000000 +0    0.0000000 +0    0.0000000 +0
  H(          2          X    )   0.78944509 +1    0.0000000 +0    0.0000000 +0     1     0     0
 Br(          3          X    )   2.05344902 +1  116.0479659 +1    0.0000000 +0     1     2     0
 Br(          4          X    )   2.05444098 +1  115.8868192 +1   -0.0641030 +1     2     1     3
 
 TIME=     0.05
  REACTANTS AND PRODUCTS SWAPPED AROUND
 *+*+*+*+*+*+*+*+*+*+*+*+*+*+*+*+*+*+*+*+*+*+*+*+*+*+*+*+*+*+*+*+*+*+*+*+*+*+*+*+
            BAR SHORTENED BY       1.000 PERCENT
 GRADIENT CRITERION IN FLEPO =     2.000


          FOR POINT   67 SECOND STRUCTURE
 DISTANCE A - B      0.533652
 HEAT               22.783377
 GRADIENT NORM      91.562342
 DIRECTION COSINE    0.999807
 GEO-OK PM7 PRECISE
 Tranzitny stav H2 + Br2

  H(          1          X    )   0.00000000 +0    0.0000000 +0    0.0000000 +0
  H(          2          X    )   1.09205286 +1    0.0000000 +0    0.0000000 +0     1     0     0
 Br(          3          X    )   1.67893829 +1  122.8843418 +1    0.0000000 +0     1     2     0
 Br(          4          X    )   1.68077249 +1  122.5601734 +1   -0.1355549 +1     2     1     3
 
 TIME=     0.05
  REACTANTS AND PRODUCTS SWAPPED AROUND
 *+*+*+*+*+*+*+*+*+*+*+*+*+*+*+*+*+*+*+*+*+*+*+*+*+*+*+*+*+*+*+*+*+*+*+*+*+*+*+*+
            BAR SHORTENED BY       1.000 PERCENT
 GRADIENT CRITERION IN FLEPO =     2.000


          FOR POINT   68 FIRST  STRUCTURE
 DISTANCE A - B      0.528316
 HEAT               23.341570
 GRADIENT NORM     126.691531
 DIRECTION COSINE    0.999906
 GEO-OK PM7 PRECISE
 Tranzitny stav H2 + Br2

  H(          1          X    )   0.00000000 +0    0.0000000 +0    0.0000000 +0
  H(          2          X    )   0.78904963 +1    0.0000000 +0    0.0000000 +0     1     0     0
 Br(          3          X    )   2.05014318 +1  116.2087489 +1    0.0000000 +0     1     2     0
 Br(          4          X    )   2.05132677 +1  115.9801021 +1   -0.1192454 +1     2     1     3
 
 TIME=     0.05
  REACTANTS AND PRODUCTS SWAPPED AROUND
 *+*+*+*+*+*+*+*+*+*+*+*+*+*+*+*+*+*+*+*+*+*+*+*+*+*+*+*+*+*+*+*+*+*+*+*+*+*+*+*+
            BAR SHORTENED BY       1.000 PERCENT
 GRADIENT CRITERION IN FLEPO =     2.000


          FOR POINT   69 SECOND STRUCTURE
 DISTANCE A - B      0.523032
 HEAT               23.268811
 GRADIENT NORM      92.224370
 DIRECTION COSINE    0.999832
 GEO-OK PM7 PRECISE
 Tranzitny stav H2 + Br2

  H(          1          X    )   0.00000000 +0    0.0000000 +0    0.0000000 +0
  H(          2          X    )   1.08902283 +1    0.0000000 +0    0.0000000 +0     1     0     0
 Br(          3          X    )   1.68251292 +1  122.8031698 +1    0.0000000 +0     1     2     0
 Br(          4          X    )   1.68434466 +1  122.4802260 +1   -0.1352929 +1     2     1     3
 
 *+*+*+*+*+*+*+*+*+*+*+*+*+*+*+*+*+*+*+*+*+*+*+*+*+*+*+*+*+*+*+*+*+*+*+*+*+*+*+*+
            BAR SHORTENED BY       1.000 PERCENT
 GRADIENT CRITERION IN FLEPO =     2.000


          FOR POINT   70 SECOND STRUCTURE
 DISTANCE A - B      0.517802
 HEAT               23.746871
 GRADIENT NORM      92.384035
 DIRECTION COSINE    0.999992
 GEO-OK PM7 PRECISE
 Tranzitny stav H2 + Br2

  H(          1          X    )   0.00000000 +0    0.0000000 +0    0.0000000 +0
  H(          2          X    )   1.07973797 +1    0.0000000 +0    0.0000000 +0     1     0     0
 Br(          3          X    )   1.68854099 +1  122.8306657 +1    0.0000000 +0     1     2     0
 Br(          4          X    )   1.68975677 +1  122.6139467 +1   -0.1404211 +1     2     1     3
 
 TIME=     0.09
  REACTANTS AND PRODUCTS SWAPPED AROUND
 *+*+*+*+*+*+*+*+*+*+*+*+*+*+*+*+*+*+*+*+*+*+*+*+*+*+*+*+*+*+*+*+*+*+*+*+*+*+*+*+
            BAR SHORTENED BY       1.000 PERCENT
 GRADIENT CRITERION IN FLEPO =     2.000


          FOR POINT   71 FIRST  STRUCTURE
 DISTANCE A - B      0.512624
 HEAT               23.996094
 GRADIENT NORM     127.311639
 DIRECTION COSINE    0.999926
 GEO-OK PM7 PRECISE
 Tranzitny stav H2 + Br2

  H(          1          X    )   0.00000000 +0    0.0000000 +0    0.0000000 +0
  H(          2          X    )   0.78880793 +1    0.0000000 +0    0.0000000 +0     1     0     0
 Br(          3          X    )   2.04741917 +1  116.3432698 +1    0.0000000 +0     1     2     0
 Br(          4          X    )   2.04853333 +1  116.0966210 +1   -0.0714632 +1     2     1     3
 
 TIME=     0.05
  REACTANTS AND PRODUCTS SWAPPED AROUND
 *+*+*+*+*+*+*+*+*+*+*+*+*+*+*+*+*+*+*+*+*+*+*+*+*+*+*+*+*+*+*+*+*+*+*+*+*+*+*+*+
            BAR SHORTENED BY       1.000 PERCENT
 GRADIENT CRITERION IN FLEPO =     2.000


          FOR POINT   72 SECOND STRUCTURE
 DISTANCE A - B      0.507498
 HEAT               24.221928
 GRADIENT NORM      92.974611
 DIRECTION COSINE    0.999856
 GEO-OK PM7 PRECISE
 Tranzitny stav H2 + Br2

  H(          1          X    )   0.00000000 +0    0.0000000 +0    0.0000000 +0
  H(          2          X    )   1.07682867 +1    0.0000000 +0    0.0000000 +0     1     0     0
 Br(          3          X    )   1.69199903 +1  122.7521888 +1    0.0000000 +0     1     2     0
 Br(          4          X    )   1.69321496 +1  122.5354100 +1   -0.1395894 +1     2     1     3
 
 TIME=     0.03
  REACTANTS AND PRODUCTS SWAPPED AROUND
 *+*+*+*+*+*+*+*+*+*+*+*+*+*+*+*+*+*+*+*+*+*+*+*+*+*+*+*+*+*+*+*+*+*+*+*+*+*+*+*+
            BAR SHORTENED BY       1.000 PERCENT
 GRADIENT CRITERION IN FLEPO =     2.000


          FOR POINT   73 FIRST  STRUCTURE
 DISTANCE A - B      0.502423
 HEAT               24.644720
 GRADIENT NORM     128.370695
 DIRECTION COSINE    0.999794
 GEO-OK PM7 PRECISE
 Tranzitny stav H2 + Br2

  H(          1          X    )   0.00000000 +0    0.0000000 +0    0.0000000 +0
  H(          2          X    )   0.78928208 +1    0.0000000 +0    0.0000000 +0     1     0     0
 Br(          3          X    )   2.04436286 +1  116.4354037 +1    0.0000000 +0     1     2     0
 Br(          4          X    )   2.04525637 +1  116.2126867 +1   -0.1437436 +1     2     1     3
 
 TIME=     0.05
  REACTANTS AND PRODUCTS SWAPPED AROUND
 *+*+*+*+*+*+*+*+*+*+*+*+*+*+*+*+*+*+*+*+*+*+*+*+*+*+*+*+*+*+*+*+*+*+*+*+*+*+*+*+
            BAR SHORTENED BY       1.000 PERCENT
 GRADIENT CRITERION IN FLEPO =     2.000


          FOR POINT   74 SECOND STRUCTURE
 DISTANCE A - B      0.497399
 HEAT               24.684079
 GRADIENT NORM      93.024534
 DIRECTION COSINE    0.999845
 GEO-OK PM7 PRECISE
 Tranzitny stav H2 + Br2

  H(          1          X    )   0.00000000 +0    0.0000000 +0    0.0000000 +0
  H(          2          X    )   1.06749728 +1    0.0000000 +0    0.0000000 +0     1     0     0
 Br(          3          X    )   1.69769411 +1  122.8058944 +1    0.0000000 +0     1     2     0
 Br(          4          X    )   1.69842005 +1  122.6510947 +1   -0.1487169 +1     2     1     3
 
 TIME=     0.06
  REACTANTS AND PRODUCTS SWAPPED AROUND
 *+*+*+*+*+*+*+*+*+*+*+*+*+*+*+*+*+*+*+*+*+*+*+*+*+*+*+*+*+*+*+*+*+*+*+*+*+*+*+*+
            BAR SHORTENED BY       1.000 PERCENT
 GRADIENT CRITERION IN FLEPO =     2.000


          FOR POINT   75 FIRST  STRUCTURE
 DISTANCE A - B      0.492425
 HEAT               25.281318
 GRADIENT NORM     128.903572
 DIRECTION COSINE    0.999918
 GEO-OK PM7 PRECISE
 Tranzitny stav H2 + Br2

  H(          1          X    )   0.00000000 +0    0.0000000 +0    0.0000000 +0
  H(          2          X    )   0.78898995 +1    0.0000000 +0    0.0000000 +0     1     0     0
 Br(          3          X    )   2.04182635 +1  116.5588699 +1    0.0000000 +0     1     2     0
 Br(          4          X    )   2.04263420 +1  116.3350973 +1   -0.0850003 +1     2     1     3
 
 TIME=     0.05
  REACTANTS AND PRODUCTS SWAPPED AROUND
 *+*+*+*+*+*+*+*+*+*+*+*+*+*+*+*+*+*+*+*+*+*+*+*+*+*+*+*+*+*+*+*+*+*+*+*+*+*+*+*+
            BAR SHORTENED BY       1.000 PERCENT
 GRADIENT CRITERION IN FLEPO =     2.000


          FOR POINT   76 SECOND STRUCTURE
 DISTANCE A - B      0.487500
 HEAT               25.143393
 GRADIENT NORM      93.544844
 DIRECTION COSINE    0.999848
 GEO-OK PM7 PRECISE
 Tranzitny stav H2 + Br2

  H(          1          X    )   0.00000000 +0    0.0000000 +0    0.0000000 +0
  H(          2          X    )   1.06471220 +1    0.0000000 +0    0.0000000 +0     1     0     0
 Br(          3          X    )   1.70101442 +1  122.7309135 +1    0.0000000 +0     1     2     0
 Br(          4          X    )   1.70174092 +1  122.5755787 +1   -0.1479487 +1     2     1     3
 
 *+*+*+*+*+*+*+*+*+*+*+*+*+*+*+*+*+*+*+*+*+*+*+*+*+*+*+*+*+*+*+*+*+*+*+*+*+*+*+*+
            BAR SHORTENED BY       1.000 PERCENT
 GRADIENT CRITERION IN FLEPO =     2.000


          FOR POINT   77 SECOND STRUCTURE
 DISTANCE A - B      0.482625
 HEAT               25.600570
 GRADIENT NORM      94.046448
 DIRECTION COSINE    0.999988
 GEO-OK PM7 PRECISE
 Tranzitny stav H2 + Br2

  H(          1          X    )   0.00000000 +0    0.0000000 +0    0.0000000 +0
  H(          2          X    )   1.06195498 +1    0.0000000 +0    0.0000000 +0     1     0     0
 Br(          3          X    )   1.70430441 +1  122.6569724 +1    0.0000000 +0     1     2     0
 Br(          4          X    )   1.70503145 +1  122.5011055 +1   -0.1471917 +1     2     1     3
 
 TIME=     0.05
  REACTANTS AND PRODUCTS SWAPPED AROUND
 *+*+*+*+*+*+*+*+*+*+*+*+*+*+*+*+*+*+*+*+*+*+*+*+*+*+*+*+*+*+*+*+*+*+*+*+*+*+*+*+
            BAR SHORTENED BY       1.000 PERCENT
 GRADIENT CRITERION IN FLEPO =     2.000


          FOR POINT   78 FIRST  STRUCTURE
 DISTANCE A - B      0.477799
 HEAT               25.905643
 GRADIENT NORM     129.892575
 DIRECTION COSINE    0.999673
 GEO-OK PM7 PRECISE
 Tranzitny stav H2 + Br2

  H(          1          X    )   0.00000000 +0    0.0000000 +0    0.0000000 +0
  H(          2          X    )   0.78944713 +1    0.0000000 +0    0.0000000 +0     1     0     0
 Br(          3          X    )   2.03897481 +1  116.6431770 +1    0.0000000 +0     1     2     0
 Br(          4          X    )   2.03957920 +1  116.4508680 +1   -0.1503237 +1     2     1     3
 
 TIME=     0.05
  REACTANTS AND PRODUCTS SWAPPED AROUND
 *+*+*+*+*+*+*+*+*+*+*+*+*+*+*+*+*+*+*+*+*+*+*+*+*+*+*+*+*+*+*+*+*+*+*+*+*+*+*+*+
            BAR SHORTENED BY       1.000 PERCENT
 GRADIENT CRITERION IN FLEPO =     2.000


          FOR POINT   79 SECOND STRUCTURE
 DISTANCE A - B      0.473021
 HEAT               26.042269
 GRADIENT NORM      93.948072
 DIRECTION COSINE    0.999758
 GEO-OK PM7 PRECISE
 Tranzitny stav H2 + Br2

  H(          1          X    )   0.00000000 +0    0.0000000 +0    0.0000000 +0
  H(          2          X    )   1.05257116 +1    0.0000000 +0    0.0000000 +0     1     0     0
 Br(          3          X    )   1.71009586 +1  122.7366728 +1    0.0000000 +0     1     2     0
 Br(          4          X    )   1.71061630 +1  122.6148887 +1   -0.1524631 +1     2     1     3
 
 TIME=     0.06
  REACTANTS AND PRODUCTS SWAPPED AROUND
 *+*+*+*+*+*+*+*+*+*+*+*+*+*+*+*+*+*+*+*+*+*+*+*+*+*+*+*+*+*+*+*+*+*+*+*+*+*+*+*+
            BAR SHORTENED BY       1.000 PERCENT
 GRADIENT CRITERION IN FLEPO =     2.000


          FOR POINT   80 FIRST  STRUCTURE
 DISTANCE A - B      0.468291
 HEAT               26.517184
 GRADIENT NORM     130.295794
 DIRECTION COSINE    0.999863
 GEO-OK PM7 PRECISE
 Tranzitny stav H2 + Br2

  H(          1          X    )   0.00000000 +0    0.0000000 +0    0.0000000 +0
  H(          2          X    )   0.78906911 +1    0.0000000 +0    0.0000000 +0     1     0     0
 Br(          3          X    )   2.03672504 +1  116.7775833 +1    0.0000000 +0     1     2     0
 Br(          4          X    )   2.03745089 +1  116.5616199 +1   -0.0788527 +1     2     1     3
 
 TIME=     0.05
  REACTANTS AND PRODUCTS SWAPPED AROUND
 *+*+*+*+*+*+*+*+*+*+*+*+*+*+*+*+*+*+*+*+*+*+*+*+*+*+*+*+*+*+*+*+*+*+*+*+*+*+*+*+
            BAR SHORTENED BY       1.000 PERCENT
 GRADIENT CRITERION IN FLEPO =     2.000


          FOR POINT   81 SECOND STRUCTURE
 DISTANCE A - B      0.463608
 HEAT               26.483181
 GRADIENT NORM      94.387686
 DIRECTION COSINE    0.999780
 GEO-OK PM7 PRECISE
 Tranzitny stav H2 + Br2

  H(          1          X    )   0.00000000 +0    0.0000000 +0    0.0000000 +0
  H(          2          X    )   1.04993614 +1    0.0000000 +0    0.0000000 +0     1     0     0
 Br(          3          X    )   1.71325208 +1  122.6658038 +1    0.0000000 +0     1     2     0
 Br(          4          X    )   1.71377372 +1  122.5432118 +1   -0.1516011 +1     2     1     3
 
 *+*+*+*+*+*+*+*+*+*+*+*+*+*+*+*+*+*+*+*+*+*+*+*+*+*+*+*+*+*+*+*+*+*+*+*+*+*+*+*+
            BAR SHORTENED BY       1.000 PERCENT
 GRADIENT CRITERION IN FLEPO =     2.000


          FOR POINT   82 SECOND STRUCTURE
 DISTANCE A - B      0.458972
 HEAT               26.916228
 GRADIENT NORM      94.273221
 DIRECTION COSINE    0.999989
 GEO-OK PM7 PRECISE
 Tranzitny stav H2 + Br2

  H(          1          X    )   0.00000000 +0    0.0000000 +0    0.0000000 +0
  H(          2          X    )   1.04106138 +1    0.0000000 +0    0.0000000 +0     1     0     0
 Br(          3          X    )   1.71872218 +1  122.7432261 +1    0.0000000 +0     1     2     0
 Br(          4          X    )   1.71887099 +1  122.6346494 +1   -0.1405953 +1     2     1     3
 
 TIME=     0.09
  REACTANTS AND PRODUCTS SWAPPED AROUND
 *+*+*+*+*+*+*+*+*+*+*+*+*+*+*+*+*+*+*+*+*+*+*+*+*+*+*+*+*+*+*+*+*+*+*+*+*+*+*+*+
            BAR SHORTENED BY       1.000 PERCENT
 GRADIENT CRITERION IN FLEPO =     2.000


          FOR POINT   83 FIRST  STRUCTURE
 DISTANCE A - B      0.454382
 HEAT               27.111931
 GRADIENT NORM     130.648407
 DIRECTION COSINE    0.999941
 GEO-OK PM7 PRECISE
 Tranzitny stav H2 + Br2

  H(          1          X    )   0.00000000 +0    0.0000000 +0    0.0000000 +0
  H(          2          X    )   0.78866521 +1    0.0000000 +0    0.0000000 +0     1     0     0
 Br(          3          X    )   2.03470883 +1  116.8987342 +1    0.0000000 +0     1     2     0
 Br(          4          X    )   2.03534735 +1  116.6805990 +1   -0.0556564 +1     2     1     3
 
 TIME=     0.05
  REACTANTS AND PRODUCTS SWAPPED AROUND
 *+*+*+*+*+*+*+*+*+*+*+*+*+*+*+*+*+*+*+*+*+*+*+*+*+*+*+*+*+*+*+*+*+*+*+*+*+*+*+*+
            BAR SHORTENED BY       1.000 PERCENT
 GRADIENT CRITERION IN FLEPO =     2.000


          FOR POINT   84 SECOND STRUCTURE
 DISTANCE A - B      0.449838
 HEAT               27.345452
 GRADIENT NORM      94.666264
 DIRECTION COSINE    0.999884
 GEO-OK PM7 PRECISE
 Tranzitny stav H2 + Br2

  H(          1          X    )   0.00000000 +0    0.0000000 +0    0.0000000 +0
  H(          2          X    )   1.03853742 +1    0.0000000 +0    0.0000000 +0     1     0     0
 Br(          3          X    )   1.72177600 +1  122.6741013 +1    0.0000000 +0     1     2     0
 Br(          4          X    )   1.72192879 +1  122.5645756 +1   -0.1396202 +1     2     1     3
 
 TIME=     0.03
  REACTANTS AND PRODUCTS SWAPPED AROUND
 *+*+*+*+*+*+*+*+*+*+*+*+*+*+*+*+*+*+*+*+*+*+*+*+*+*+*+*+*+*+*+*+*+*+*+*+*+*+*+*+
            BAR SHORTENED BY       1.000 PERCENT
 GRADIENT CRITERION IN FLEPO =     2.000


          FOR POINT   85 FIRST  STRUCTURE
 DISTANCE A - B      0.445340
 HEAT               27.701341
 GRADIENT NORM     131.525027
 DIRECTION COSINE    0.999827
 GEO-OK PM7 PRECISE
 Tranzitny stav H2 + Br2

  H(          1          X    )   0.00000000 +0    0.0000000 +0    0.0000000 +0
  H(          2          X    )   0.78907817 +1    0.0000000 +0    0.0000000 +0     1     0     0
 Br(          3          X    )   2.03219555 +1  116.9705699 +1    0.0000000 +0     1     2     0
 Br(          4          X    )   2.03254827 +1  116.7985637 +1   -0.1376401 +1     2     1     3
 
 TIME=     0.05
  REACTANTS AND PRODUCTS SWAPPED AROUND
 *+*+*+*+*+*+*+*+*+*+*+*+*+*+*+*+*+*+*+*+*+*+*+*+*+*+*+*+*+*+*+*+*+*+*+*+*+*+*+*+
            BAR SHORTENED BY       1.000 PERCENT
 GRADIENT CRITERION IN FLEPO =     2.000


          FOR POINT   86 SECOND STRUCTURE
 DISTANCE A - B      0.440887
 HEAT               27.763147
 GRADIENT NORM      94.490288
 DIRECTION COSINE    0.999906
 GEO-OK PM7 PRECISE
 Tranzitny stav H2 + Br2

  H(          1          X    )   0.00000000 +0    0.0000000 +0    0.0000000 +0
  H(          2          X    )   1.02991291 +1    0.0000000 +0    0.0000000 +0     1     0     0
 Br(          3          X    )   1.72732940 +1  122.7504539 +1    0.0000000 +0     1     2     0
 Br(          4          X    )   1.72714585 +1  122.6606362 +1   -0.1378893 +1     2     1     3
 
 TIME=     0.06
  REACTANTS AND PRODUCTS SWAPPED AROUND
 *+*+*+*+*+*+*+*+*+*+*+*+*+*+*+*+*+*+*+*+*+*+*+*+*+*+*+*+*+*+*+*+*+*+*+*+*+*+*+*+
            BAR SHORTENED BY       1.000 PERCENT
 GRADIENT CRITERION IN FLEPO =     2.000


          FOR POINT   87 FIRST  STRUCTURE
 DISTANCE A - B      0.436478
 HEAT               28.277821
 GRADIENT NORM     131.826178
 DIRECTION COSINE    0.999965
 GEO-OK PM7 PRECISE
 Tranzitny stav H2 + Br2

  H(          1          X    )   0.00000000 +0    0.0000000 +0    0.0000000 +0
  H(          2          X    )   0.78868174 +1    0.0000000 +0    0.0000000 +0     1     0     0
 Br(          3          X    )   2.03030059 +1  117.1014172 +1    0.0000000 +0     1     2     0
 Br(          4          X    )   2.03073887 +1  116.9024995 +1   -0.0607667 +1     2     1     3
 
 TIME=     0.05
  REACTANTS AND PRODUCTS SWAPPED AROUND
 *+*+*+*+*+*+*+*+*+*+*+*+*+*+*+*+*+*+*+*+*+*+*+*+*+*+*+*+*+*+*+*+*+*+*+*+*+*+*+*+
            BAR SHORTENED BY       1.000 PERCENT
 GRADIENT CRITERION IN FLEPO =     2.000


          FOR POINT   88 SECOND STRUCTURE
 DISTANCE A - B      0.432113
 HEAT               28.176316
 GRADIENT NORM      94.836578
 DIRECTION COSINE    0.999916
 GEO-OK PM7 PRECISE
 Tranzitny stav H2 + Br2

  H(          1          X    )   0.00000000 +0    0.0000000 +0    0.0000000 +0
  H(          2          X    )   1.02750059 +1    0.0000000 +0    0.0000000 +0     1     0     0
 Br(          3          X    )   1.73026021 +1  122.6841076 +1    0.0000000 +0     1     2     0
 Br(          4          X    )   1.73008198 +1  122.5933296 +1   -0.1370088 +1     2     1     3
 
 *+*+*+*+*+*+*+*+*+*+*+*+*+*+*+*+*+*+*+*+*+*+*+*+*+*+*+*+*+*+*+*+*+*+*+*+*+*+*+*+
            BAR SHORTENED BY       1.000 PERCENT
 GRADIENT CRITERION IN FLEPO =     2.000


          FOR POINT   89 SECOND STRUCTURE
 DISTANCE A - B      0.427792
 HEAT               28.586803
 GRADIENT NORM      95.171666
 DIRECTION COSINE    0.999989
 GEO-OK PM7 PRECISE
 Tranzitny stav H2 + Br2

  H(          1          X    )   0.00000000 +0    0.0000000 +0    0.0000000 +0
  H(          2          X    )   1.02511240 +1    0.0000000 +0    0.0000000 +0     1     0     0
 Br(          3          X    )   1.73316402 +1  122.6186484 +1    0.0000000 +0     1     2     0
 Br(          4          X    )   1.73299107 +1  122.5269183 +1   -0.1361402 +1     2     1     3
 
 TIME=     0.05
  REACTANTS AND PRODUCTS SWAPPED AROUND
 *+*+*+*+*+*+*+*+*+*+*+*+*+*+*+*+*+*+*+*+*+*+*+*+*+*+*+*+*+*+*+*+*+*+*+*+*+*+*+*+
            BAR SHORTENED BY       1.000 PERCENT
 GRADIENT CRITERION IN FLEPO =     2.000


          FOR POINT   90 FIRST  STRUCTURE
 DISTANCE A - B      0.423514
 HEAT               28.843238
 GRADIENT NORM     132.638319
 DIRECTION COSINE    0.999781
 GEO-OK PM7 PRECISE
 Tranzitny stav H2 + Br2

  H(          1          X    )   0.00000000 +0    0.0000000 +0    0.0000000 +0
  H(          2          X    )   0.78907168 +1    0.0000000 +0    0.0000000 +0     1     0     0
 Br(          3          X    )   2.02795842 +1  117.1707486 +1    0.0000000 +0     1     2     0
 Br(          4          X    )   2.02811701 +1  117.0153851 +1   -0.1385089 +1     2     1     3
 
 TIME=     0.05
  REACTANTS AND PRODUCTS SWAPPED AROUND
 *+*+*+*+*+*+*+*+*+*+*+*+*+*+*+*+*+*+*+*+*+*+*+*+*+*+*+*+*+*+*+*+*+*+*+*+*+*+*+*+
            BAR SHORTENED BY       1.000 PERCENT
 GRADIENT CRITERION IN FLEPO =     2.000


          FOR POINT   91 SECOND STRUCTURE
 DISTANCE A - B      0.419279
 HEAT               28.985365
 GRADIENT NORM      94.779616
 DIRECTION COSINE    0.999904
 GEO-OK PM7 PRECISE
 Tranzitny stav H2 + Br2

  H(          1          X    )   0.00000000 +0    0.0000000 +0    0.0000000 +0
  H(          2          X    )   1.01548473 +1    0.0000000 +0    0.0000000 +0     1     0     0
 Br(          3          X    )   1.73878364 +1  122.9405408 +1    0.0000000 +0     1     2     0
 Br(          4          X    )   1.73973407 +1  122.4502236 +1   -0.1642925 +1     2     1     3
 
 TIME=     0.06
  REACTANTS AND PRODUCTS SWAPPED AROUND
 *+*+*+*+*+*+*+*+*+*+*+*+*+*+*+*+*+*+*+*+*+*+*+*+*+*+*+*+*+*+*+*+*+*+*+*+*+*+*+*+
            BAR SHORTENED BY       1.000 PERCENT
 GRADIENT CRITERION IN FLEPO =     2.000


          FOR POINT   92 FIRST  STRUCTURE
 DISTANCE A - B      0.415086
 HEAT               29.394518
 GRADIENT NORM     132.657205
 DIRECTION COSINE    0.999970
 GEO-OK PM7 PRECISE
 Tranzitny stav H2 + Br2

  H(          1          X    )   0.00000000 +0    0.0000000 +0    0.0000000 +0
  H(          2          X    )   0.78837118 +1    0.0000000 +0    0.0000000 +0     1     0     0
 Br(          3          X    )   2.02605144 +1  117.4529015 +1    0.0000000 +0     1     2     0
 Br(          4          X    )   2.02756365 +1  116.9823460 +1   -0.1576782 +1     2     1     3
 
 TIME=     0.05
  REACTANTS AND PRODUCTS SWAPPED AROUND
 *+*+*+*+*+*+*+*+*+*+*+*+*+*+*+*+*+*+*+*+*+*+*+*+*+*+*+*+*+*+*+*+*+*+*+*+*+*+*+*+
            BAR SHORTENED BY       1.000 PERCENT
 GRADIENT CRITERION IN FLEPO =     2.000


          FOR POINT   93 SECOND STRUCTURE
 DISTANCE A - B      0.410935
 HEAT               29.379372
 GRADIENT NORM      95.072175
 DIRECTION COSINE    0.999933
 GEO-OK PM7 PRECISE
 Tranzitny stav H2 + Br2

  H(          1          X    )   0.00000000 +0    0.0000000 +0    0.0000000 +0
  H(          2          X    )   1.01321360 +1    0.0000000 +0    0.0000000 +0     1     0     0
 Br(          3          X    )   1.74156330 +1  122.8766565 +1    0.0000000 +0     1     2     0
 Br(          4          X    )   1.74252242 +1  122.3868385 +1   -0.1641513 +1     2     1     3
 
 *+*+*+*+*+*+*+*+*+*+*+*+*+*+*+*+*+*+*+*+*+*+*+*+*+*+*+*+*+*+*+*+*+*+*+*+*+*+*+*+
            BAR SHORTENED BY       1.000 PERCENT
 GRADIENT CRITERION IN FLEPO =     2.000


          FOR POINT   94 SECOND STRUCTURE
 DISTANCE A - B      0.406826
 HEAT               29.770608
 GRADIENT NORM      95.356119
 DIRECTION COSINE    0.999989
 GEO-OK PM7 PRECISE
 Tranzitny stav H2 + Br2

  H(          1          X    )   0.00000000 +0    0.0000000 +0    0.0000000 +0
  H(          2          X    )   1.01096517 +1    0.0000000 +0    0.0000000 +0     1     0     0
 Br(          3          X    )   1.74431730 +1  122.8136139 +1    0.0000000 +0     1     2     0
 Br(          4          X    )   1.74528495 +1  122.3242847 +1   -0.1640131 +1     2     1     3
 
 TIME=     0.05
  REACTANTS AND PRODUCTS SWAPPED AROUND
 *+*+*+*+*+*+*+*+*+*+*+*+*+*+*+*+*+*+*+*+*+*+*+*+*+*+*+*+*+*+*+*+*+*+*+*+*+*+*+*+
            BAR SHORTENED BY       1.000 PERCENT
 GRADIENT CRITERION IN FLEPO =     2.000


          FOR POINT   95 FIRST  STRUCTURE
 DISTANCE A - B      0.402758
 HEAT               29.935489
 GRADIENT NORM     133.441376
 DIRECTION COSINE    0.999817
 GEO-OK PM7 PRECISE
 Tranzitny stav H2 + Br2

  H(          1          X    )   0.00000000 +0    0.0000000 +0    0.0000000 +0
  H(          2          X    )   0.78879580 +1    0.0000000 +0    0.0000000 +0     1     0     0
 Br(          3          X    )   2.02381038 +1  117.5187214 +1    0.0000000 +0     1     2     0
 Br(          4          X    )   2.02513064 +1  117.0885517 +1   -0.1843272 +1     2     1     3
 
 TIME=     0.05
  REACTANTS AND PRODUCTS SWAPPED AROUND
 *+*+*+*+*+*+*+*+*+*+*+*+*+*+*+*+*+*+*+*+*+*+*+*+*+*+*+*+*+*+*+*+*+*+*+*+*+*+*+*+
            BAR SHORTENED BY       1.000 PERCENT
 GRADIENT CRITERION IN FLEPO =     2.000


          FOR POINT   96 SECOND STRUCTURE
 DISTANCE A - B      0.398730
 HEAT               30.151003
 GRADIENT NORM      94.965530
 DIRECTION COSINE    0.999911
 GEO-OK PM7 PRECISE
 Tranzitny stav H2 + Br2

[...]
 
 *+*+*+*+*+*+*+*+*+*+*+*+*+*+*+*+*+*+*+*+*+*+*+*+*+*+*+*+*+*+*+*+*+*+*+*+*+*+*+*+
            BAR SHORTENED BY       1.000 PERCENT
 GRADIENT CRITERION IN FLEPO =     2.000


          FOR POINT  216 SECOND STRUCTURE
 DISTANCE A - B      0.119372
 HEAT               45.473585
 GRADIENT NORM      88.639841
 DIRECTION COSINE    0.999990
 GEO-OK PM7 PRECISE
 Tranzitny stav H2 + Br2

  H(          1          X    )   0.00000000 +0    0.0000000 +0    0.0000000 +0
  H(          2          X    )   0.86901978 +1    0.0000000 +0    0.0000000 +0     1     0     0
 Br(          3          X    )   1.92880801 +1  121.9702908 +1    0.0000000 +0     1     2     0
 Br(          4          X    )   1.93107976 +1  121.7141755 +1   -0.0551883 +1     2     1     3
 
 TIME=     0.05
  REACTANTS AND PRODUCTS SWAPPED AROUND
 *+*+*+*+*+*+*+*+*+*+*+*+*+*+*+*+*+*+*+*+*+*+*+*+*+*+*+*+*+*+*+*+*+*+*+*+*+*+*+*+
            BAR SHORTENED BY       1.000 PERCENT
 GRADIENT CRITERION IN FLEPO =     2.000


          FOR POINT  217 FIRST  STRUCTURE
 DISTANCE A - B      0.118178
 HEAT               45.578997
 GRADIENT NORM     140.060992
 DIRECTION COSINE    0.999765
 GEO-OK PM7 PRECISE
 Tranzitny stav H2 + Br2

  H(          1          X    )   0.00000000 +0    0.0000000 +0    0.0000000 +0
  H(          2          X    )   0.79367157 +1    0.0000000 +0    0.0000000 +0     1     0     0
 Br(          3          X    )   2.00651291 +1  120.6361392 +1    0.0000000 +0     1     2     0
 Br(          4          X    )   2.00930636 +1  120.3079170 +1   -0.0611320 +1     2     1     3
 
 TIME=     0.03
  REACTANTS AND PRODUCTS SWAPPED AROUND
 *+*+*+*+*+*+*+*+*+*+*+*+*+*+*+*+*+*+*+*+*+*+*+*+*+*+*+*+*+*+*+*+*+*+*+*+*+*+*+*+
            BAR SHORTENED BY       1.000 PERCENT
 GRADIENT CRITERION IN FLEPO =     2.000


          FOR POINT  218 SECOND STRUCTURE
 DISTANCE A - B      0.116996
 HEAT               45.578392
 GRADIENT NORM      88.764176
 DIRECTION COSINE    0.999721
 GEO-OK PM7 PRECISE
 Tranzitny stav H2 + Br2

  H(          1          X    )   0.00000000 +0    0.0000000 +0    0.0000000 +0
  H(          2          X    )   0.86826630 +1    0.0000000 +0    0.0000000 +0     1     0     0
 Br(          3          X    )   1.92957942 +1  121.9563788 +1    0.0000000 +0     1     2     0
 Br(          4          X    )   1.93185630 +1  121.6995904 +1   -0.0552470 +1     2     1     3
 
 *+*+*+*+*+*+*+*+*+*+*+*+*+*+*+*+*+*+*+*+*+*+*+*+*+*+*+*+*+*+*+*+*+*+*+*+*+*+*+*+
            BAR SHORTENED BY       1.000 PERCENT
 GRADIENT CRITERION IN FLEPO =     2.000


          FOR POINT  219 SECOND STRUCTURE
 DISTANCE A - B      0.115826
 HEAT               45.680249
 GRADIENT NORM      88.434370
 DIRECTION COSINE    0.999995
 GEO-OK PM7 PRECISE
 Tranzitny stav H2 + Br2

  H(          1          X    )   0.00000000 +0    0.0000000 +0    0.0000000 +0
  H(          2          X    )   0.86755970 +1    0.0000000 +0    0.0000000 +0     1     0     0
 Br(          3          X    )   1.93164861 +1  121.9779767 +1    0.0000000 +0     1     2     0
 Br(          4          X    )   1.93432126 +1  121.6771746 +1   -0.0530881 +1     2     1     3
 
 TIME=     0.08
  REACTANTS AND PRODUCTS SWAPPED AROUND
 *+*+*+*+*+*+*+*+*+*+*+*+*+*+*+*+*+*+*+*+*+*+*+*+*+*+*+*+*+*+*+*+*+*+*+*+*+*+*+*+
            BAR SHORTENED BY       1.000 PERCENT
 GRADIENT CRITERION IN FLEPO =     2.000


          FOR POINT  220 FIRST  STRUCTURE
 DISTANCE A - B      0.114668
 HEAT               45.739995
 GRADIENT NORM     140.325018
 DIRECTION COSINE    0.999747
 GEO-OK PM7 PRECISE
 Tranzitny stav H2 + Br2

  H(          1          X    )   0.00000000 +0    0.0000000 +0    0.0000000 +0
  H(          2          X    )   0.79441059 +1    0.0000000 +0    0.0000000 +0     1     0     0
 Br(          3          X    )   2.00785517 +1  120.5680290 +1    0.0000000 +0     1     2     0
 Br(          4          X    )   2.01011047 +1  120.4395204 +1   -0.0499676 +1     2     1     3
 
 TIME=     0.06
  REACTANTS AND PRODUCTS SWAPPED AROUND
 *+*+*+*+*+*+*+*+*+*+*+*+*+*+*+*+*+*+*+*+*+*+*+*+*+*+*+*+*+*+*+*+*+*+*+*+*+*+*+*+
            BAR SHORTENED BY       1.000 PERCENT
 GRADIENT CRITERION IN FLEPO =     2.000


          FOR POINT  221 SECOND STRUCTURE
 DISTANCE A - B      0.113522
 HEAT               45.778885
 GRADIENT NORM      87.932608
 DIRECTION COSINE    0.999781
 GEO-OK PM7 PRECISE
 Tranzitny stav H2 + Br2

  H(          1          X    )   0.00000000 +0    0.0000000 +0    0.0000000 +0
  H(          2          X    )   0.86689652 +1    0.0000000 +0    0.0000000 +0     1     0     0
 Br(          3          X    )   1.93505479 +1  121.9063135 +1    0.0000000 +0     1     2     0
 Br(          4          X    )   1.93652930 +1  121.7586038 +1   -0.0550171 +1     2     1     3
 
 TIME=     0.05
  REACTANTS AND PRODUCTS SWAPPED AROUND
 *+*+*+*+*+*+*+*+*+*+*+*+*+*+*+*+*+*+*+*+*+*+*+*+*+*+*+*+*+*+*+*+*+*+*+*+*+*+*+*+
            BAR SHORTENED BY       1.000 PERCENT
 GRADIENT CRITERION IN FLEPO =     2.000


          FOR POINT  222 FIRST  STRUCTURE
 DISTANCE A - B      0.112386
 HEAT               45.895253
 GRADIENT NORM     139.751244
 DIRECTION COSINE    0.999857
 GEO-OK PM7 PRECISE
 Tranzitny stav H2 + Br2

  H(          1          X    )   0.00000000 +0    0.0000000 +0    0.0000000 +0
  H(          2          X    )   0.79388593 +1    0.0000000 +0    0.0000000 +0     1     0     0
 Br(          3          X    )   2.00867218 +1  120.6661671 +1    0.0000000 +0     1     2     0
 Br(          4          X    )   2.01113614 +1  120.4485200 +1   -0.0554875 +1     2     1     3
 
 TIME=     0.05
  REACTANTS AND PRODUCTS SWAPPED AROUND
 *+*+*+*+*+*+*+*+*+*+*+*+*+*+*+*+*+*+*+*+*+*+*+*+*+*+*+*+*+*+*+*+*+*+*+*+*+*+*+*+
            BAR SHORTENED BY       1.000 PERCENT
 GRADIENT CRITERION IN FLEPO =     2.000


          FOR POINT  223 SECOND STRUCTURE
 DISTANCE A - B      0.111262
 HEAT               45.877760
 GRADIENT NORM      88.055066
 DIRECTION COSINE    0.999860
 GEO-OK PM7 PRECISE
 Tranzitny stav H2 + Br2

  H(          1          X    )   0.00000000 +0    0.0000000 +0    0.0000000 +0
  H(          2          X    )   0.86616642 +1    0.0000000 +0    0.0000000 +0     1     0     0
 Br(          3          X    )   1.93578612 +1  121.8934152 +1    0.0000000 +0     1     2     0
 Br(          4          X    )   1.93727037 +1  121.7450357 +1   -0.0550216 +1     2     1     3
 
 *+*+*+*+*+*+*+*+*+*+*+*+*+*+*+*+*+*+*+*+*+*+*+*+*+*+*+*+*+*+*+*+*+*+*+*+*+*+*+*+
            BAR SHORTENED BY       1.000 PERCENT
 GRADIENT CRITERION IN FLEPO =     2.000


          FOR POINT  224 SECOND STRUCTURE
 DISTANCE A - B      0.110150
 HEAT               45.975784
 GRADIENT NORM      88.179567
 DIRECTION COSINE    0.999991
 GEO-OK PM7 PRECISE
 Tranzitny stav H2 + Br2

  H(          1          X    )   0.00000000 +0    0.0000000 +0    0.0000000 +0
  H(          2          X    )   0.86544361 +1    0.0000000 +0    0.0000000 +0     1     0     0
 Br(          3          X    )   1.93651023 +1  121.8806560 +1    0.0000000 +0     1     2     0
 Br(          4          X    )   1.93800413 +1  121.7316129 +1   -0.0550259 +1     2     1     3
 
 TIME=     0.06
  REACTANTS AND PRODUCTS SWAPPED AROUND
 *+*+*+*+*+*+*+*+*+*+*+*+*+*+*+*+*+*+*+*+*+*+*+*+*+*+*+*+*+*+*+*+*+*+*+*+*+*+*+*+
            BAR SHORTENED BY       1.000 PERCENT
 GRADIENT CRITERION IN FLEPO =     2.000


          FOR POINT  225 FIRST  STRUCTURE
 DISTANCE A - B      0.109048
 HEAT               46.049506
 GRADIENT NORM     140.339679
 DIRECTION COSINE    0.999759
 GEO-OK PM7 PRECISE
 Tranzitny stav H2 + Br2

  H(          1          X    )   0.00000000 +0    0.0000000 +0    0.0000000 +0
  H(          2          X    )   0.79460151 +1    0.0000000 +0    0.0000000 +0     1     0     0
 Br(          3          X    )   2.00794607 +1  120.6778477 +1    0.0000000 +0     1     2     0
 Br(          4          X    )   2.01040019 +1  120.4609194 +1   -0.0554826 +1     2     1     3
 
 TIME=     0.02
  REACTANTS AND PRODUCTS SWAPPED AROUND
 *+*+*+*+*+*+*+*+*+*+*+*+*+*+*+*+*+*+*+*+*+*+*+*+*+*+*+*+*+*+*+*+*+*+*+*+*+*+*+*+
            BAR SHORTENED BY       1.000 PERCENT
 GRADIENT CRITERION IN FLEPO =     2.000


          FOR POINT  226 SECOND STRUCTURE
 DISTANCE A - B      0.107958
 HEAT               46.071990
 GRADIENT NORM      88.304643
 DIRECTION COSINE    0.999745
 GEO-OK PM7 PRECISE
 Tranzitny stav H2 + Br2

  H(          1          X    )   0.00000000 +0    0.0000000 +0    0.0000000 +0
  H(          2          X    )   0.86473519 +1    0.0000000 +0    0.0000000 +0     1     0     0
 Br(          3          X    )   1.93722002 +1  121.8681606 +1    0.0000000 +0     1     2     0
 Br(          4          X    )   1.93872339 +1  121.7184665 +1   -0.0550303 +1     2     1     3
 
 TIME=     0.03
  REACTANTS AND PRODUCTS SWAPPED AROUND
 *+*+*+*+*+*+*+*+*+*+*+*+*+*+*+*+*+*+*+*+*+*+*+*+*+*+*+*+*+*+*+*+*+*+*+*+*+*+*+*+
            BAR SHORTENED BY       1.000 PERCENT
 GRADIENT CRITERION IN FLEPO =     2.000


          FOR POINT  227 FIRST  STRUCTURE
 DISTANCE A - B      0.106878
 HEAT               46.201314
 GRADIENT NORM     140.920259
 DIRECTION COSINE    0.999635
 GEO-OK PM7 PRECISE
 Tranzitny stav H2 + Br2

  H(          1          X    )   0.00000000 +0    0.0000000 +0    0.0000000 +0
  H(          2          X    )   0.79530284 +1    0.0000000 +0    0.0000000 +0     1     0     0
 Br(          3          X    )   2.00723450 +1  120.6893047 +1    0.0000000 +0     1     2     0
 Br(          4          X    )   2.00967898 +1  120.4730801 +1   -0.0554778 +1     2     1     3
 
 TIME=     0.02
  REACTANTS AND PRODUCTS SWAPPED AROUND
 *+*+*+*+*+*+*+*+*+*+*+*+*+*+*+*+*+*+*+*+*+*+*+*+*+*+*+*+*+*+*+*+*+*+*+*+*+*+*+*+
            BAR SHORTENED BY       1.000 PERCENT
 GRADIENT CRITERION IN FLEPO =     2.000


          FOR POINT  228 SECOND STRUCTURE
 DISTANCE A - B      0.105809
 HEAT               46.164770
 GRADIENT NORM      87.917635
 DIRECTION COSINE    0.999696
 GEO-OK PM7 PRECISE
 Tranzitny stav H2 + Br2

  H(          1          X    )   0.00000000 +0    0.0000000 +0    0.0000000 +0
  H(          2          X    )   0.86395802 +1    0.0000000 +0    0.0000000 +0     1     0     0
 Br(          3          X    )   1.93951813 +1  121.9050282 +1    0.0000000 +0     1     2     0
 Br(          4          X    )   1.94137297 +1  121.6934262 +1   -0.0446647 +1     2     1     3
 
 *+*+*+*+*+*+*+*+*+*+*+*+*+*+*+*+*+*+*+*+*+*+*+*+*+*+*+*+*+*+*+*+*+*+*+*+*+*+*+*+
            BAR SHORTENED BY       1.000 PERCENT
 GRADIENT CRITERION IN FLEPO =     2.000


          FOR POINT  229 SECOND STRUCTURE
 DISTANCE A - B      0.104751
 HEAT               46.257860
 GRADIENT NORM      88.046957
 DIRECTION COSINE    0.999991
 GEO-OK PM7 PRECISE
 Tranzitny stav H2 + Br2

  H(          1          X    )   0.00000000 +0    0.0000000 +0    0.0000000 +0
  H(          2          X    )   0.86327147 +1    0.0000000 +0    0.0000000 +0     1     0     0
 Br(          3          X    )   1.94019067 +1  121.8924286 +1    0.0000000 +0     1     2     0
 Br(          4          X    )   1.94205167 +1  121.6808220 +1   -0.0447696 +1     2     1     3
 
 TIME=     0.09
  REACTANTS AND PRODUCTS SWAPPED AROUND
 *+*+*+*+*+*+*+*+*+*+*+*+*+*+*+*+*+*+*+*+*+*+*+*+*+*+*+*+*+*+*+*+*+*+*+*+*+*+*+*+
            BAR SHORTENED BY       1.000 PERCENT
 GRADIENT CRITERION IN FLEPO =     2.000


          FOR POINT  230 FIRST  STRUCTURE
 DISTANCE A - B      0.103704
 HEAT               46.344480
 GRADIENT NORM     140.362860
 DIRECTION COSINE    0.999770
 GEO-OK PM7 PRECISE
 Tranzitny stav H2 + Br2

  H(          1          X    )   0.00000000 +0    0.0000000 +0    0.0000000 +0
  H(          2          X    )   0.79490946 +1    0.0000000 +0    0.0000000 +0     1     0     0
 Br(          3          X    )   2.00827796 +1  120.7492901 +1    0.0000000 +0     1     2     0
 Br(          4          X    )   2.01120881 +1  120.5174892 +1   -0.0513801 +1     2     1     3
 
 TIME=     0.05
  REACTANTS AND PRODUCTS SWAPPED AROUND
 *+*+*+*+*+*+*+*+*+*+*+*+*+*+*+*+*+*+*+*+*+*+*+*+*+*+*+*+*+*+*+*+*+*+*+*+*+*+*+*+
            BAR SHORTENED BY       1.000 PERCENT
 GRADIENT CRITERION IN FLEPO =     2.000


          FOR POINT  231 SECOND STRUCTURE
 DISTANCE A - B      0.102667
 HEAT               46.347022
 GRADIENT NORM      87.745226
 DIRECTION COSINE    0.999866
 GEO-OK PM7 PRECISE
 Tranzitny stav H2 + Br2

  H(          1          X    )   0.00000000 +0    0.0000000 +0    0.0000000 +0
  H(          2          X    )   0.86194290 +1    0.0000000 +0    0.0000000 +0     1     0     0
 Br(          3          X    )   1.94264144 +1  121.9321833 +1    0.0000000 +0     1     2     0
 Br(          4          X    )   1.94483603 +1  121.6802510 +1   -0.0531080 +1     2     1     3
 
 TIME=     0.05
  REACTANTS AND PRODUCTS SWAPPED AROUND
 *+*+*+*+*+*+*+*+*+*+*+*+*+*+*+*+*+*+*+*+*+*+*+*+*+*+*+*+*+*+*+*+*+*+*+*+*+*+*+*+
            BAR SHORTENED BY       1.000 PERCENT
 GRADIENT CRITERION IN FLEPO =     2.000


          FOR POINT  232 FIRST  STRUCTURE
 DISTANCE A - B      0.101640
 HEAT               46.485557
 GRADIENT NORM     140.208571
 DIRECTION COSINE    0.999872
 GEO-OK PM7 PRECISE
 Tranzitny stav H2 + Br2

  H(          1          X    )   0.00000000 +0    0.0000000 +0    0.0000000 +0
  H(          2          X    )   0.79504537 +1    0.0000000 +0    0.0000000 +0     1     0     0
 Br(          3          X    )   2.00921405 +1  120.8030175 +1    0.0000000 +0     1     2     0
 Br(          4          X    )   2.01246791 +1  120.5420768 +1   -0.0543435 +1     2     1     3
 
 TIME=     0.05
  REACTANTS AND PRODUCTS SWAPPED AROUND
 *+*+*+*+*+*+*+*+*+*+*+*+*+*+*+*+*+*+*+*+*+*+*+*+*+*+*+*+*+*+*+*+*+*+*+*+*+*+*+*+
            BAR SHORTENED BY       1.000 PERCENT
 GRADIENT CRITERION IN FLEPO =     2.000


          FOR POINT  233 SECOND STRUCTURE
 DISTANCE A - B      0.100624
 HEAT               46.436252
 GRADIENT NORM      87.871513
 DIRECTION COSINE    0.999866
 GEO-OK PM7 PRECISE
 Tranzitny stav H2 + Br2

  H(          1          X    )   0.00000000 +0    0.0000000 +0    0.0000000 +0
  H(          2          X    )   0.86127392 +1    0.0000000 +0    0.0000000 +0     1     0     0
 Br(          3          X    )   1.94330333 +1  121.9205139 +1    0.0000000 +0     1     2     0
 Br(          4          X    )   1.94550839 +1  121.6684738 +1   -0.0531205 +1     2     1     3
 
 *+*+*+*+*+*+*+*+*+*+*+*+*+*+*+*+*+*+*+*+*+*+*+*+*+*+*+*+*+*+*+*+*+*+*+*+*+*+*+*+
            BAR SHORTENED BY       1.000 PERCENT
 AT END OF STEPWISE ASCENT OF REACTION BARRIER

 -------------------------------------------------------------------------------
 GEO-OK PM7 PRECISE
 Tranzitny stav H2 + Br2



     TRANSITION STATE LOCATED USING THE "SADDLE" TECHNIQUE    
     SCF FIELD WAS ACHIEVED                                   


                              PM7 CALCULATION
                                                       MOPAC v22.1.1 Windows
                                                       Mon Feb 19 21:14:37 2024




          FINAL H.O.F PLUS STRESS =         46.43625 KCAL/MOL =     194.28928 KJ/MOL
          FINAL STRESS            =          0.00000 KCAL/MOL =       0.00000 KJ/MOL
          FINAL HEAT OF FORMATION =         46.43625 KCAL/MOL =     194.28928 KJ/MOL
          TOTAL DISTORTION        =          0.00201 Angstroms
          AVERAGE DISTORTION      =          0.00050 Angstroms per atom (all atoms)
          RMS DISTORTION          =          0.00050 Angstroms per atom (all atoms)


          COSMO AREA              =         99.94 SQUARE ANGSTROMS
          COSMO VOLUME            =         84.00 CUBIC ANGSTROMS

          GRADIENT NORM           =         47.98704          =       23.99352 PER ATOM
          IONIZATION POTENTIAL    =          9.448031 EV
          HOMO LUMO ENERGIES (EV) =         -9.448 -4.320
          NO. OF FILLED LEVELS    =          8
          MOLECULAR WEIGHT        =        161.8238         POINT GROUP:  C2v 

          MOLECULAR DIMENSIONS (Angstroms)

            Atom       Atom       Distance
           Br     4   Br     3     2.84726
           Br     3    H     2     1.72979
            H     1    H     2     0.00046


          SCF CALCULATIONS        =       1080
 
          WALL-CLOCK TIME         =     11.359 SECONDS
          COMPUTATION TIME        =          1 MINUTE AND 3.516 SECONDS



       FINAL  POINT  AND  DERIVATIVES

   PARAMETER     ATOM    TYPE            VALUE        GRADIENT
      1          1  H    CARTESIAN X    -5.148505     18.476302  KCAL/ANGSTROM
      2          1  H    CARTESIAN Y     2.109114    -26.324837  KCAL/ANGSTROM
      3          1  H    CARTESIAN Z    -0.043758     -2.039536  KCAL/ANGSTROM
      4          2  H    CARTESIAN X    -5.080352     11.777615  KCAL/ANGSTROM
      5          2  H    CARTESIAN Y     1.316339     25.374558  KCAL/ANGSTROM
      6          2  H    CARTESIAN Z    -0.047346      2.896842  KCAL/ANGSTROM
      7          3 Br    CARTESIAN X    -3.518053    -10.324026  KCAL/ANGSTROM
      8          3 Br    CARTESIAN Y     3.281857     -8.567972  KCAL/ANGSTROM
      9          3 Br    CARTESIAN Z    -0.019694     -1.119315  KCAL/ANGSTROM
     10          4 Br    CARTESIAN X    -3.266735    -16.212107  KCAL/ANGSTROM
     11          4 Br    CARTESIAN Y     0.445743      5.199083  KCAL/ANGSTROM
     12          4 Br    CARTESIAN Z    -0.034091     -1.463585  KCAL/ANGSTROM




   ATOM                 CHEMICAL                   X               Y               Z
  NUMBER                 SYMBOL               (ANGSTROMS)     (ANGSTROMS)     (ANGSTROMS)
 
     1       H(          1          X    )   -5.14850451  *   2.10911431  *  -0.04375805  *
     2       H(          2          X    )   -5.08035167  *   1.31633883  *  -0.04734583  *
     3      Br(          3          X    )   -3.51805278  *   3.28185742  *  -0.01969377  *
     4      Br(          4          X    )   -3.26673500  *   0.44574346  *  -0.03409050  *

                             CARTESIAN COORDINATES

   1    H       -5.148504515     2.109114314    -0.043758055
   2    H       -5.080351675     1.316338825    -0.047345827
   3   Br       -3.518052782     3.281857416    -0.019693774
   4   Br       -3.266735002     0.445743463    -0.034090502


           Empirical Formula: H2 Br2  =     4 atoms



      MOLECULAR POINT GROUP   :   C2v 


                  EIGENVALUES  
 -24.79028 -24.10152 -17.83984 -12.12649 -11.15034 -10.61355 -10.06754  -9.44803
  -4.32043   3.96886 253.16528 253.76266 255.30313 256.95587 257.16845 259.88561
 259.97091 262.55404 263.85584 264.74451


              NET ATOMIC CHARGES AND DIPOLE CONTRIBUTIONS

  ATOM NO.   TYPE          CHARGE      No. of ELECS.   s-Pop       p-Pop       d-Pop       
    1          H           0.157389        0.8426     0.84261
    2          H           0.158237        0.8418     0.84176
    3         Br          -0.156559        7.1566     1.99515     5.15946     0.00195
    4         Br          -0.159068        7.1591     1.99523     5.16190     0.00194
 DIPOLE           X         Y         Z       TOTAL
 POINT-CHG.    -2.612    -0.214    -0.028     2.621
 HYBRID        -0.057    -0.006    -0.001     0.057
 SUM           -2.669    -0.220    -0.029     2.678


          ATOMIC ORBITAL ELECTRON POPULATIONS

                  Atom                 s        px        py        pz      x^2-y^2     xz        z^2       yz        xy
   H(          1          X    )   0.84261
   H(          2          X    )   0.84176
  Br(          3          X    )   1.99515   1.31132   1.84836   1.99977   0.00052   0.00001   0.00043   0.00010   0.00089
  Br(          4          X    )   1.99523   1.21730   1.94477   1.99983   0.00068   0.00001   0.00043   0.00010   0.00072

 **********************
 *                    *
 * JOB ENDED NORMALLY *
 *                    *
 **********************



 TOTAL JOB TIME:            11.38 SECONDS

 == MOPAC DONE ==
