 *******************************************************************************
 **                                                                           **
 **                              MOPAC v22.1.0                                **
 **                                                                           **
 *******************************************************************************
 **          Digital Object Identifier (DOI): 10.5281/zenodo.6511958          **
 **    Visit the DOI location for information on how to cite this program.    **
 *******************************************************************************

                              PM7 CALCULATION RESULTS

 *******************************************************************************
 *  CALCULATION DONE:                                Sun Jan 21 14:30:59 2024  *
 *  PM7        - The PM7 Hamiltonian to be used
 *  SINGLET    - SPIN STATE DEFINED AS A SINGLET
 *
 *
 *
 *                 CHARGE ON SYSTEM = 0
 *
 *
 *
 *  PRECISE    - TIGHTER CRITERIA TO BE USED
 *  T=         - A TIME OF 172800.0 SECONDS REQUESTED
 *  DUMP=N     - RESTART FILE WRITTEN EVERY 7200.0 SECONDS REQUESTED
 *  LARGE      - EXPANDED OUTPUT TO BE PRINTED
 *******************************************************************************
 PRECISE LARGE CHARGE=0 SINGLET  PM7
 CH4, PM7

   ATOM   CHEMICAL          X               Y               Z
  NUMBER   SYMBOL      (ANGSTROMS)     (ANGSTROMS)     (ANGSTROMS)
 
     1       C         -2.69650000  *   1.19435000  *   0.00000000  *
     2       H         -1.58710000  *   1.19435000  *   0.00000000  *
     3       H         -3.06630000  *   1.41120000  *   1.02323000  *
     4       H         -3.06630000  *   0.19978000  *  -0.32381000  *
     5       H         -3.06630000  *   1.97206000  *  -0.69942000  *
 


          CARTESIAN COORDINATES 

    NO.       ATOM           X           Y           Z

     1         C         -2.6965      1.1944      0.0000
     2         H         -1.5871      1.1944      0.0000
     3         H         -3.0663      1.4112      1.0232
     4         H         -3.0663      0.1998     -0.3238
     5         H         -3.0663      1.9721     -0.6994

 General Reference for PM7:
 "Optimization of Parameters for Semiempirical Methods VI: More Modifications to the 
 NDDO Approximations and Re-optimization of Parameters", J. J. P. Stewart, J. Mol. Mod., 1:32, 19 (2013)
 https://link.springer.com/article/10.1007/s00894-012-1667-x

           Empirical Formula: C H4  =     5 atoms



      MOLECULAR POINT GROUP   :   Td  


 SINGLET STATE CALCULATION


      RHF CALCULATION, NO. OF DOUBLY OCCUPIED LEVELS = 4


          Geometry optimization using EF

          DIAGONAL MATRIX USED AS START HESSIAN

 CYCLE:     1 TIME:   0.000 TIME LEFT:  2.00D  GRAD.:    31.744 HEAT: -13.62749
 CYCLE:     2 TIME:   0.012 TIME LEFT:  2.00D  GRAD.:    11.228 HEAT: -14.32776
 CYCLE:     3 TIME:   0.008 TIME LEFT:  2.00D  GRAD.:     4.578 HEAT: -14.38399
 CYCLE:     4 TIME:   0.000 TIME LEFT:  2.00D  GRAD.:     3.577 HEAT: -14.39539
 CYCLE:     5 TIME:   0.000 TIME LEFT:  2.00D  GRAD.:     2.042 HEAT: -14.40126
 CYCLE:     6 TIME:   0.000 TIME LEFT:  2.00D  GRAD.:     1.055 HEAT: -14.40349
 CYCLE:     7 TIME:   0.000 TIME LEFT:  2.00D  GRAD.:     0.336 HEAT: -14.40421
 CYCLE:     8 TIME:   0.000 TIME LEFT:  2.00D  GRAD.:     0.138 HEAT: -14.40440
 CYCLE:     9 TIME:   0.000 TIME LEFT:  2.00D  GRAD.:     0.041 HEAT: -14.40441

     GRADIENT =  0.04058 IS LESS THAN CUTOFF =  0.05000



 -------------------------------------------------------------------------------
 PRECISE LARGE CHARGE=0 SINGLET  PM7
 CH4, PM7



     GEOMETRY OPTIMISED USING EIGENVECTOR FOLLOWING (EF).     
     SCF FIELD WAS ACHIEVED                                   


                              PM7 CALCULATION
                                                       MOPAC v22.1.0 Windows
                                                       Sun Jan 21 14:30:59 2024




          FINAL HEAT OF FORMATION =        -14.40441 KCAL/MOL =     -60.26806 KJ/MOL


          COSMO AREA              =         54.81 SQUARE ANGSTROMS
          COSMO VOLUME            =         37.01 CUBIC ANGSTROMS

          GRADIENT NORM           =          0.04058          =       0.01815 PER ATOM
          IONIZATION POTENTIAL    =         13.727282 EV
          HOMO LUMO ENERGIES (EV) =        -13.727  5.913
          NO. OF FILLED LEVELS    =          4
          MOLECULAR WEIGHT        =         16.0426         POINT GROUP:  Td  

          MOLECULAR DIMENSIONS (Angstroms)

            Atom       Atom       Distance
            H     5    H     2     1.77219
            H     3    H     4     1.77208
            H     3    H     2     1.25302


          SCF CALCULATIONS        =         13
 
          WALL-CLOCK TIME         =      0.059 SECONDS
          COMPUTATION TIME        =      0.047 SECONDS




   ATOM   CHEMICAL          X               Y               Z
  NUMBER   SYMBOL      (ANGSTROMS)     (ANGSTROMS)     (ANGSTROMS)
 
     1       C         -2.69648962  *   1.19437947  *  -0.00000035  *
     2       H         -1.61132270  *   1.19427486  *   0.00002597  *
     3       H         -3.05821694  *   1.40644062  *   1.00088888  *
     4       H         -3.05821083  *   0.22149298  *  -0.31674461  *
     5       H         -3.05828536  *   1.95507981  *  -0.68416902  *

                             CARTESIAN COORDINATES

   1    C       -2.696489623     1.194379472    -0.000000355
   2    H       -1.611322695     1.194274857     0.000025972
   3    H       -3.058216940     1.406440619     1.000888881
   4    H       -3.058210829     0.221492978    -0.316744611
   5    H       -3.058285357     1.955079807    -0.684169017


           Empirical Formula: C H4  =     5 atoms



      MOLECULAR POINT GROUP   :   Td  


                  EIGENVALUES  
 -25.02405 -13.72808 -13.72773 -13.72728   5.91322   5.91358   5.91373   7.41224


              NET ATOMIC CHARGES AND DIPOLE CONTRIBUTIONS

  ATOM NO.   TYPE          CHARGE      No. of ELECS.   s-Pop       p-Pop       
    1          C          -0.603058        4.6031     1.04478     3.55828
    2          H           0.150764        0.8492     0.84924
    3          H           0.150763        0.8492     0.84924
    4          H           0.150762        0.8492     0.84924
    5          H           0.150769        0.8492     0.84923
 DIPOLE           X         Y         Z       TOTAL
 POINT-CHG.    -0.000    -0.000    -0.000     0.000
 HYBRID        -0.000    -0.000     0.000     0.000
 SUM           -0.000    -0.000     0.000     0.000


          ATOMIC ORBITAL ELECTRON POPULATIONS

     Atom    s        px        py        pz   
    1  C   1.04478   1.18609   1.18610   1.18609
    2  H   0.84924
    3  H   0.84924
    4  H   0.84924
    5  H   0.84923

 **********************
 *                    *
 * JOB ENDED NORMALLY *
 *                    *
 **********************



 TOTAL JOB TIME:             0.06 SECONDS

 == MOPAC DONE ==
